 Entering Gaussian System, Link 0=g16
 Initial command:
 /apps/scratch/compile/gaussian/g16/l1.exe "/iitjfs/apps/gaussian/scratch/Gau-43728.inp" -scrdir="/iitjfs/apps/gaussian/scratch/"
 Entering Link 1 = /apps/scratch/compile/gaussian/g16/l1.exe PID=     43729.
  
 Copyright (c) 1988-2019, Gaussian, Inc.  All Rights Reserved.
  
 This is part of the Gaussian(R) 16 program.  It is based on
 the Gaussian(R) 09 system (copyright 2009, Gaussian, Inc.),
 the Gaussian(R) 03 system (copyright 2003, Gaussian, Inc.),
 the Gaussian(R) 98 system (copyright 1998, Gaussian, Inc.),
 the Gaussian(R) 94 system (copyright 1995, Gaussian, Inc.),
 the Gaussian 92(TM) system (copyright 1992, Gaussian, Inc.),
 the Gaussian 90(TM) system (copyright 1990, Gaussian, Inc.),
 the Gaussian 88(TM) system (copyright 1988, Gaussian, Inc.),
 the Gaussian 86(TM) system (copyright 1986, Carnegie Mellon
 University), and the Gaussian 82(TM) system (copyright 1983,
 Carnegie Mellon University). Gaussian is a federally registered
 trademark of Gaussian, Inc.
  
 This software contains proprietary and confidential information,
 including trade secrets, belonging to Gaussian, Inc.
  
 This software is provided under written license and may be
 used, copied, transmitted, or stored only in accord with that
 written license.
  
 The following legend is applicable only to US Government
 contracts under FAR:
  
                    RESTRICTED RIGHTS LEGEND
  
 Use, reproduction and disclosure by the US Government is
 subject to restrictions as set forth in subparagraphs (a)
 and (c) of the Commercial Computer Software - Restricted
 Rights clause in FAR 52.227-19.
  
 Gaussian, Inc.
 340 Quinnipiac St., Bldg. 40, Wallingford CT 06492
  
  
 ---------------------------------------------------------------
 Warning -- This program may not be used in any manner that
 competes with the business of Gaussian, Inc. or will provide
 assistance to any competitor of Gaussian, Inc.  The licensee
 of this program is prohibited from giving any competitor of
 Gaussian, Inc. access to this program.  By using this program,
 the user acknowledges that Gaussian, Inc. is engaged in the
 business of creating and licensing software in the field of
 computational chemistry and represents and warrants to the
 licensee that it is not a competitor of Gaussian, Inc. and that
 it will not use this program in any manner prohibited above.
 ---------------------------------------------------------------
  

 Cite this work as:
 Gaussian 16, Revision C.01,
 M. J. Frisch, G. W. Trucks, H. B. Schlegel, G. E. Scuseria, 
 M. A. Robb, J. R. Cheeseman, G. Scalmani, V. Barone, 
 G. A. Petersson, H. Nakatsuji, X. Li, M. Caricato, A. V. Marenich, 
 J. Bloino, B. G. Janesko, R. Gomperts, B. Mennucci, H. P. Hratchian, 
 J. V. Ortiz, A. F. Izmaylov, J. L. Sonnenberg, D. Williams-Young, 
 F. Ding, F. Lipparini, F. Egidi, J. Goings, B. Peng, A. Petrone, 
 T. Henderson, D. Ranasinghe, V. G. Zakrzewski, J. Gao, N. Rega, 
 G. Zheng, W. Liang, M. Hada, M. Ehara, K. Toyota, R. Fukuda, 
 J. Hasegawa, M. Ishida, T. Nakajima, Y. Honda, O. Kitao, H. Nakai, 
 T. Vreven, K. Throssell, J. A. Montgomery, Jr., J. E. Peralta, 
 F. Ogliaro, M. J. Bearpark, J. J. Heyd, E. N. Brothers, K. N. Kudin, 
 V. N. Staroverov, T. A. Keith, R. Kobayashi, J. Normand, 
 K. Raghavachari, A. P. Rendell, J. C. Burant, S. S. Iyengar, 
 J. Tomasi, M. Cossi, J. M. Millam, M. Klene, C. Adamo, R. Cammi, 
 J. W. Ochterski, R. L. Martin, K. Morokuma, O. Farkas, 
 J. B. Foresman, and D. J. Fox, Gaussian, Inc., Wallingford CT, 2019.
 
 ******************************************
 Gaussian 16:  EM64L-G16RevC.01  3-Jul-2019
                 1-Aug-2025 
 ******************************************
 %nprocShared=40
 Will use up to   40 processors via shared memory.
 %mem=24GB
 ---------------------------
 #p MP2/aug-cc-pVTZ opt Freq
 ---------------------------
 1/18=20,19=15,38=1/1,3;
 2/9=110,12=2,17=6,18=5,40=1/2;
 3/5=16,6=1,7=10,11=9,25=1,30=1,71=1/1,2,3;
 4//1;
 5/5=2,38=5/2;
 8/6=4,10=1/1;
 9/15=2,16=-3/6;
 10/5=1/2;
 6/7=2,8=2,9=2,10=2/1;
 7/12=2/1,2,3,16;
 1/18=20,19=15/3(2);
 2/9=110/2;
 99//99;
 2/9=110/2;
 3/5=16,6=1,7=10,11=9,25=1,30=1,71=1/1,2,3;
 4/5=5,16=3,69=1/1;
 5/5=2,38=5/2;
 8/6=4,10=1/1;
 9/15=2,16=-3/6;
 10/5=1/2;
 7/12=2/1,2,3,16;
 1/18=20,19=15/3(-8);
 2/9=110/2;
 6/7=2,8=2,9=2,10=2/1;
 99/9=10/99;
 Leave Link    1 at Fri Aug  1 13:20:29 2025, MaxMem=  3221225472 cpu:               3.4 elap:               0.1
 (Enter /apps/scratch/compile/gaussian/g16/l101.exe)
 ----
 test
 ----
 Symbolic Z-matrix:
 Charge =  0 Multiplicity = 1
 H                     0.9939   -47.5073   1.0498 
 O                     2.484    -47.2556   0.2919 
 H                     2.8569   -46.4716   0.7405 
 H                     2.2706   -46.9299  -0.6043 
 O                     2.9669   -44.7598   1.5636 
 O                     1.4291   -45.9286  -1.9917 
 O                     0.0851   -47.4532   1.4548 
 H                     2.7383   -43.8524  -0.0667 
 H                     2.0717   -44.7262   1.9988 
 H                     3.5997   -44.5034   2.2455 
 H                     1.3333   -46.1705  -2.9209 
 H                     2.1872   -44.3007  -1.4311 
 H                     0.5061   -45.905   -1.6198 
 H                    -0.0997   -48.3291   1.8146 
 H                    -0.7677   -46.5603   0.0101 
 H                     0.2547   -45.8109   2.385 
 O                    -0.9292   -45.9329  -0.7207 
 H                    -0.6609   -42.8149   0.3146 
 H                    -0.1291   -44.3464   2.0978 
 O                     0.5035   -44.892    2.605 
 H                    -1.1149   -45.0869  -0.2676 
 O                    -1.1895   -43.5188   0.7745 
 O                     2.4736   -43.5054  -0.9407 
 H                    -2.0551   -43.1244   0.9375 
 O                     0.3832   -41.8489  -0.6036 
 H                     1.1744   -42.4245  -0.778 
 H                     0.7478   -41.0117  -0.2928 
 
 Add virtual bond connecting atoms O20        and H9         Dist= 3.19D+00.
 Add virtual bond connecting atoms O2         and H1         Dist= 3.19D+00.
 Add virtual bond connecting atoms O25        and H18        Dist= 3.20D+00.
 Add virtual bond connecting atoms O17        and H13        Dist= 3.20D+00.
 Add virtual bond connecting atoms H26        and O23        Dist= 3.21D+00.
 Add virtual bond connecting atoms H8         and O5         Dist= 3.55D+00.
 Add virtual bond connecting atoms O22        and H19        Dist= 3.57D+00.
 Add virtual bond connecting atoms H12        and O6         Dist= 3.56D+00.
 Add virtual bond connecting atoms O22        and H21        Dist= 3.56D+00.
 Add virtual bond connecting atoms O5         and H3         Dist= 3.60D+00.
 Add virtual bond connecting atoms O6         and H4         Dist= 3.60D+00.
 Add virtual bond connecting atoms H15        and O7         Dist= 3.59D+00.
 Add virtual bond connecting atoms H16        and O7         Dist= 3.58D+00.
 ITRead=  0  0  0  0  0  0  0  0  0  0  0  0  0  0  0  0  0  0  0  0
 ITRead=  0  0  0  0  0  0  0
 MicOpt= -1 -1 -1 -1 -1 -1 -1 -1 -1 -1 -1 -1 -1 -1 -1 -1 -1 -1 -1 -1
 MicOpt= -1 -1 -1 -1 -1 -1 -1
 NAtoms=     27 NQM=       27 NQMF=       0 NMMI=      0 NMMIF=      0
                NMic=       0 NMicF=      0.
                    Isotopes and Nuclear Properties:
 (Nuclear quadrupole moments (NQMom) in fm**2, nuclear magnetic moments (NMagM)
  in nuclear magnetons)

  Atom         1           2           3           4           5           6           7           8           9          10
 IAtWgt=           1          16           1           1          16          16          16           1           1           1
 AtmWgt=   1.0078250  15.9949146   1.0078250   1.0078250  15.9949146  15.9949146  15.9949146   1.0078250   1.0078250   1.0078250
 NucSpn=           1           0           1           1           0           0           0           1           1           1
 AtZEff=  -0.0000000  -0.0000000  -0.0000000  -0.0000000  -0.0000000  -0.0000000  -0.0000000  -0.0000000  -0.0000000  -0.0000000
 NQMom=    0.0000000   0.0000000   0.0000000   0.0000000   0.0000000   0.0000000   0.0000000   0.0000000   0.0000000   0.0000000
 NMagM=    2.7928460   0.0000000   2.7928460   2.7928460   0.0000000   0.0000000   0.0000000   2.7928460   2.7928460   2.7928460
 AtZNuc=   1.0000000   8.0000000   1.0000000   1.0000000   8.0000000   8.0000000   8.0000000   1.0000000   1.0000000   1.0000000

  Atom        11          12          13          14          15          16          17          18          19          20
 IAtWgt=           1           1           1           1           1           1          16           1           1          16
 AtmWgt=   1.0078250   1.0078250   1.0078250   1.0078250   1.0078250   1.0078250  15.9949146   1.0078250   1.0078250  15.9949146
 NucSpn=           1           1           1           1           1           1           0           1           1           0
 AtZEff=  -0.0000000  -0.0000000  -0.0000000  -0.0000000  -0.0000000  -0.0000000  -0.0000000  -0.0000000  -0.0000000  -0.0000000
 NQMom=    0.0000000   0.0000000   0.0000000   0.0000000   0.0000000   0.0000000   0.0000000   0.0000000   0.0000000   0.0000000
 NMagM=    2.7928460   2.7928460   2.7928460   2.7928460   2.7928460   2.7928460   0.0000000   2.7928460   2.7928460   0.0000000
 AtZNuc=   1.0000000   1.0000000   1.0000000   1.0000000   1.0000000   1.0000000   8.0000000   1.0000000   1.0000000   8.0000000

  Atom        21          22          23          24          25          26          27
 IAtWgt=           1          16          16           1          16           1           1
 AtmWgt=   1.0078250  15.9949146  15.9949146   1.0078250  15.9949146   1.0078250   1.0078250
 NucSpn=           1           0           0           1           0           1           1
 AtZEff=  -0.0000000  -0.0000000  -0.0000000  -0.0000000  -0.0000000  -0.0000000  -0.0000000
 NQMom=    0.0000000   0.0000000   0.0000000   0.0000000   0.0000000   0.0000000   0.0000000
 NMagM=    2.7928460   0.0000000   0.0000000   2.7928460   0.0000000   2.7928460   2.7928460
 AtZNuc=   1.0000000   8.0000000   8.0000000   1.0000000   8.0000000   1.0000000   1.0000000
 Leave Link  101 at Fri Aug  1 13:20:29 2025, MaxMem=  3221225472 cpu:              23.1 elap:               0.6
 (Enter /apps/scratch/compile/gaussian/g16/l103.exe)

 GradGradGradGradGradGradGradGradGradGradGradGradGradGradGradGradGradGrad
 Berny optimization.
 Initialization pass.
                           ----------------------------
                           !    Initial Parameters    !
                           ! (Angstroms and Degrees)  !
 --------------------------                            --------------------------
 ! Name  Definition              Value          Derivative Info.                !
 --------------------------------------------------------------------------------
 ! R1    R(1,2)                  1.6906         estimate D2E/DX2                !
 ! R2    R(1,7)                  0.9964         estimate D2E/DX2                !
 ! R3    R(2,3)                  0.9772         estimate D2E/DX2                !
 ! R4    R(2,4)                  0.9771         estimate D2E/DX2                !
 ! R5    R(3,5)                  1.9026         estimate D2E/DX2                !
 ! R6    R(4,6)                  1.9067         estimate D2E/DX2                !
 ! R7    R(5,8)                  1.8798         estimate D2E/DX2                !
 ! R8    R(5,9)                  0.9959         estimate D2E/DX2                !
 ! R9    R(5,10)                 0.965          estimate D2E/DX2                !
 ! R10   R(6,11)                 0.9649         estimate D2E/DX2                !
 ! R11   R(6,12)                 1.8812         estimate D2E/DX2                !
 ! R12   R(6,13)                 0.9954         estimate D2E/DX2                !
 ! R13   R(7,14)                 0.9648         estimate D2E/DX2                !
 ! R14   R(7,15)                 1.9004         estimate D2E/DX2                !
 ! R15   R(7,16)                 1.895          estimate D2E/DX2                !
 ! R16   R(8,23)                 0.9769         estimate D2E/DX2                !
 ! R17   R(9,20)                 1.6894         estimate D2E/DX2                !
 ! R18   R(12,23)                0.9773         estimate D2E/DX2                !
 ! R19   R(13,17)                1.6939         estimate D2E/DX2                !
 ! R20   R(15,17)                0.9766         estimate D2E/DX2                !
 ! R21   R(16,20)                0.9771         estimate D2E/DX2                !
 ! R22   R(17,21)                0.9775         estimate D2E/DX2                !
 ! R23   R(18,22)                0.9932         estimate D2E/DX2                !
 ! R24   R(18,25)                1.693          estimate D2E/DX2                !
 ! R25   R(19,20)                0.9773         estimate D2E/DX2                !
 ! R26   R(19,22)                1.8869         estimate D2E/DX2                !
 ! R27   R(21,22)                1.8843         estimate D2E/DX2                !
 ! R28   R(22,24)                0.9651         estimate D2E/DX2                !
 ! R29   R(23,26)                1.6979         estimate D2E/DX2                !
 ! R30   R(25,26)                0.9938         estimate D2E/DX2                !
 ! R31   R(25,27)                0.9646         estimate D2E/DX2                !
 ! A1    A(1,2,3)              104.4766         estimate D2E/DX2                !
 ! A2    A(1,2,4)              105.5632         estimate D2E/DX2                !
 ! A3    A(3,2,4)              103.707          estimate D2E/DX2                !
 ! A4    A(2,3,5)              160.4735         estimate D2E/DX2                !
 ! A5    A(2,4,6)              159.8493         estimate D2E/DX2                !
 ! A6    A(3,5,8)               92.985          estimate D2E/DX2                !
 ! A7    A(3,5,9)               99.6384         estimate D2E/DX2                !
 ! A8    A(3,5,10)             125.64           estimate D2E/DX2                !
 ! A9    A(8,5,9)              104.678          estimate D2E/DX2                !
 ! A10   A(8,5,10)             124.358          estimate D2E/DX2                !
 ! A11   A(9,5,10)             105.7645         estimate D2E/DX2                !
 ! A12   A(4,6,11)             127.7962         estimate D2E/DX2                !
 ! A13   A(4,6,12)              93.4251         estimate D2E/DX2                !
 ! A14   A(4,6,13)              98.6169         estimate D2E/DX2                !
 ! A15   A(11,6,12)            122.9494         estimate D2E/DX2                !
 ! A16   A(11,6,13)            105.8827         estimate D2E/DX2                !
 ! A17   A(12,6,13)            103.9939         estimate D2E/DX2                !
 ! A18   A(1,7,14)             106.0805         estimate D2E/DX2                !
 ! A19   A(1,7,15)              97.2271         estimate D2E/DX2                !
 ! A20   A(1,7,16)              99.4936         estimate D2E/DX2                !
 ! A21   A(14,7,15)            128.616          estimate D2E/DX2                !
 ! A22   A(14,7,16)            128.3799         estimate D2E/DX2                !
 ! A23   A(15,7,16)             90.3514         estimate D2E/DX2                !
 ! A24   A(7,15,17)            160.8892         estimate D2E/DX2                !
 ! A25   A(7,16,20)            161.5032         estimate D2E/DX2                !
 ! A26   A(13,17,15)           105.5244         estimate D2E/DX2                !
 ! A27   A(13,17,21)           113.1262         estimate D2E/DX2                !
 ! A28   A(15,17,21)           103.9194         estimate D2E/DX2                !
 ! A29   A(9,20,16)            104.3513         estimate D2E/DX2                !
 ! A30   A(9,20,19)            111.09           estimate D2E/DX2                !
 ! A31   A(16,20,19)           104.0845         estimate D2E/DX2                !
 ! A32   A(18,22,19)           109.6634         estimate D2E/DX2                !
 ! A33   A(18,22,21)           108.2188         estimate D2E/DX2                !
 ! A34   A(18,22,24)           105.4227         estimate D2E/DX2                !
 ! A35   A(19,22,21)            90.0346         estimate D2E/DX2                !
 ! A36   A(19,22,24)           124.3909         estimate D2E/DX2                !
 ! A37   A(21,22,24)           117.9705         estimate D2E/DX2                !
 ! A38   A(8,23,12)            103.8449         estimate D2E/DX2                !
 ! A39   A(8,23,26)            110.3488         estimate D2E/DX2                !
 ! A40   A(12,23,26)           109.9943         estimate D2E/DX2                !
 ! A41   A(18,25,26)           104.8133         estimate D2E/DX2                !
 ! A42   A(18,25,27)           123.6126         estimate D2E/DX2                !
 ! A43   A(26,25,27)           104.9695         estimate D2E/DX2                !
 ! A44   L(2,1,7,9,-1)         170.7478         estimate D2E/DX2                !
 ! A45   L(5,8,23,4,-1)        171.1013         estimate D2E/DX2                !
 ! A46   L(5,9,20,1,-1)        171.1159         estimate D2E/DX2                !
 ! A47   L(6,12,23,3,-1)       170.9824         estimate D2E/DX2                !
 ! A48   L(6,13,17,1,-1)       170.1823         estimate D2E/DX2                !
 ! A49   L(22,18,25,2,-1)      170.5436         estimate D2E/DX2                !
 ! A50   L(20,19,22,4,-1)      166.5715         estimate D2E/DX2                !
 ! A51   L(17,21,22,3,-1)      169.9241         estimate D2E/DX2                !
 ! A52   L(23,26,25,15,-1)     175.4601         estimate D2E/DX2                !
 ! A53   L(2,1,7,9,-2)         172.0935         estimate D2E/DX2                !
 ! A54   L(5,8,23,4,-2)        172.7039         estimate D2E/DX2                !
 ! A55   L(5,9,20,1,-2)        181.1321         estimate D2E/DX2                !
 ! A56   L(6,12,23,3,-2)       190.5083         estimate D2E/DX2                !
 ! A57   L(6,13,17,1,-2)       176.5319         estimate D2E/DX2                !
 ! A58   L(22,18,25,2,-2)      175.7239         estimate D2E/DX2                !
 ! A59   L(20,19,22,4,-2)      179.2386         estimate D2E/DX2                !
 ! A60   L(17,21,22,3,-2)      181.7773         estimate D2E/DX2                !
 ! A61   L(23,26,25,15,-2)     176.1559         estimate D2E/DX2                !
 ! D1    D(3,2,7,14)          -127.7487         estimate D2E/DX2                !
 ! D2    D(3,2,7,15)            97.9722         estimate D2E/DX2                !
 ! D3    D(3,2,7,16)             7.4717         estimate D2E/DX2                !
 ! D4    D(4,2,7,14)           124.992          estimate D2E/DX2                !
 ! D5    D(4,2,7,15)            -9.2871         estimate D2E/DX2                !
 ! D6    D(4,2,7,16)           -99.7877         estimate D2E/DX2                !
 ! D7    D(1,2,3,5)            -40.8938         estimate D2E/DX2                !
 ! D8    D(4,2,3,5)             69.483          estimate D2E/DX2                !
 ! D9    D(1,2,4,6)             44.5526         estimate D2E/DX2                !
 ! D10   D(3,2,4,6)            -65.0221         estimate D2E/DX2                !
 ! D11   D(2,3,5,8)            -71.4214         estimate D2E/DX2                !
 ! D12   D(2,3,5,9)             34.0179         estimate D2E/DX2                !
 ! D13   D(2,3,5,10)           151.46           estimate D2E/DX2                !
 ! D14   D(2,4,6,11)          -154.6396         estimate D2E/DX2                !
 ! D15   D(2,4,6,12)            67.9722         estimate D2E/DX2                !
 ! D16   D(2,4,6,13)           -36.7473         estimate D2E/DX2                !
 ! D17   D(3,5,20,16)            6.7583         estimate D2E/DX2                !
 ! D18   D(3,5,20,19)         -103.3595         estimate D2E/DX2                !
 ! D19   D(8,5,20,16)          100.8949         estimate D2E/DX2                !
 ! D20   D(8,5,20,19)           -9.2229         estimate D2E/DX2                !
 ! D21   D(10,5,20,16)        -123.5778         estimate D2E/DX2                !
 ! D22   D(10,5,20,19)         126.3044         estimate D2E/DX2                !
 ! D23   D(3,5,23,12)           12.6268         estimate D2E/DX2                !
 ! D24   D(3,5,23,26)          126.9845         estimate D2E/DX2                !
 ! D25   D(9,5,23,12)          -87.3173         estimate D2E/DX2                !
 ! D26   D(9,5,23,26)           27.0405         estimate D2E/DX2                !
 ! D27   D(10,5,23,12)         150.9057         estimate D2E/DX2                !
 ! D28   D(10,5,23,26)         -94.7366         estimate D2E/DX2                !
 ! D29   D(4,6,17,15)           -9.3418         estimate D2E/DX2                !
 ! D30   D(4,6,17,21)          101.5579         estimate D2E/DX2                !
 ! D31   D(11,6,17,15)         123.2577         estimate D2E/DX2                !
 ! D32   D(11,6,17,21)        -125.8426         estimate D2E/DX2                !
 ! D33   D(12,6,17,15)        -103.3883         estimate D2E/DX2                !
 ! D34   D(12,6,17,21)           7.5114         estimate D2E/DX2                !
 ! D35   D(4,6,23,8)           -14.7052         estimate D2E/DX2                !
 ! D36   D(4,6,23,26)         -128.7376         estimate D2E/DX2                !
 ! D37   D(11,6,23,8)         -156.3003         estimate D2E/DX2                !
 ! D38   D(11,6,23,26)          89.6673         estimate D2E/DX2                !
 ! D39   D(13,6,23,8)           84.2387         estimate D2E/DX2                !
 ! D40   D(13,6,23,26)         -29.7937         estimate D2E/DX2                !
 ! D41   D(1,7,15,17)          -43.0588         estimate D2E/DX2                !
 ! D42   D(14,7,15,17)        -160.3575         estimate D2E/DX2                !
 ! D43   D(16,7,15,17)          56.5569         estimate D2E/DX2                !
 ! D44   D(1,7,16,20)           38.1461         estimate D2E/DX2                !
 ! D45   D(14,7,16,20)         157.5324         estimate D2E/DX2                !
 ! D46   D(15,7,16,20)         -59.2413         estimate D2E/DX2                !
 ! D47   D(7,15,17,13)          45.299          estimate D2E/DX2                !
 ! D48   D(7,15,17,21)         -73.9631         estimate D2E/DX2                !
 ! D49   D(7,16,20,9)          -37.7357         estimate D2E/DX2                !
 ! D50   D(7,16,20,19)          78.8238         estimate D2E/DX2                !
 ! D51   D(13,17,22,18)         24.4268         estimate D2E/DX2                !
 ! D52   D(13,17,22,19)        -85.2345         estimate D2E/DX2                !
 ! D53   D(13,17,22,24)        145.9039         estimate D2E/DX2                !
 ! D54   D(15,17,22,18)        134.9304         estimate D2E/DX2                !
 ! D55   D(15,17,22,19)         25.269          estimate D2E/DX2                !
 ! D56   D(15,17,22,24)       -103.5925         estimate D2E/DX2                !
 ! D57   D(9,20,22,18)         -25.9639         estimate D2E/DX2                !
 ! D58   D(9,20,22,21)          81.9402         estimate D2E/DX2                !
 ! D59   D(9,20,22,24)        -155.022          estimate D2E/DX2                !
 ! D60   D(16,20,22,18)       -133.8068         estimate D2E/DX2                !
 ! D61   D(16,20,22,21)        -25.9027         estimate D2E/DX2                !
 ! D62   D(16,20,22,24)         97.1351         estimate D2E/DX2                !
 ! D63   D(19,22,25,26)         46.8822         estimate D2E/DX2                !
 ! D64   D(19,22,25,27)        -71.6964         estimate D2E/DX2                !
 ! D65   D(21,22,25,26)        -47.1177         estimate D2E/DX2                !
 ! D66   D(21,22,25,27)       -165.6963         estimate D2E/DX2                !
 ! D67   D(24,22,25,26)       -173.793          estimate D2E/DX2                !
 ! D68   D(24,22,25,27)         67.6284         estimate D2E/DX2                !
 ! D69   D(8,23,25,18)         -51.1779         estimate D2E/DX2                !
 ! D70   D(8,23,25,27)          79.1265         estimate D2E/DX2                !
 ! D71   D(12,23,25,18)         61.6244         estimate D2E/DX2                !
 ! D72   D(12,23,25,27)       -168.0711         estimate D2E/DX2                !
 --------------------------------------------------------------------------------
 Trust Radius=3.00D-01 FncErr=1.00D-07 GrdErr=1.00D-07 EigMax=2.50D+02 EigMin=1.00D-04
 Number of steps in this run=    162 maximum allowed number of steps=    162.
 GradGradGradGradGradGradGradGradGradGradGradGradGradGradGradGradGradGrad

 Leave Link  103 at Fri Aug  1 13:20:30 2025, MaxMem=  3221225472 cpu:               2.3 elap:               0.1
 (Enter /apps/scratch/compile/gaussian/g16/l202.exe)
                          Input orientation:                          
 ---------------------------------------------------------------------
 Center     Atomic      Atomic             Coordinates (Angstroms)
 Number     Number       Type             X           Y           Z
 ---------------------------------------------------------------------
      1          1           0        0.993900  -47.507300    1.049800
      2          8           0        2.484000  -47.255600    0.291900
      3          1           0        2.856900  -46.471600    0.740500
      4          1           0        2.270600  -46.929900   -0.604300
      5          8           0        2.966900  -44.759800    1.563600
      6          8           0        1.429100  -45.928600   -1.991700
      7          8           0        0.085100  -47.453200    1.454800
      8          1           0        2.738300  -43.852400   -0.066700
      9          1           0        2.071700  -44.726200    1.998800
     10          1           0        3.599700  -44.503400    2.245500
     11          1           0        1.333300  -46.170500   -2.920900
     12          1           0        2.187200  -44.300700   -1.431100
     13          1           0        0.506100  -45.905000   -1.619800
     14          1           0       -0.099700  -48.329100    1.814600
     15          1           0       -0.767700  -46.560300    0.010100
     16          1           0        0.254700  -45.810900    2.385000
     17          8           0       -0.929200  -45.932900   -0.720700
     18          1           0       -0.660900  -42.814900    0.314600
     19          1           0       -0.129100  -44.346400    2.097800
     20          8           0        0.503500  -44.892000    2.605000
     21          1           0       -1.114900  -45.086900   -0.267600
     22          8           0       -1.189500  -43.518800    0.774500
     23          8           0        2.473600  -43.505400   -0.940700
     24          1           0       -2.055100  -43.124400    0.937500
     25          8           0        0.383200  -41.848900   -0.603600
     26          1           0        1.174400  -42.424500   -0.778000
     27          1           0        0.747800  -41.011700   -0.292800
 ---------------------------------------------------------------------
                    Distance matrix (angstroms):
                    1          2          3          4          5
     1  H    0.000000
     2  O    1.690610   0.000000
     3  H    2.153859   0.977217   0.000000
     4  H    2.167810   0.977136   1.536969   0.000000
     5  O    3.421327   2.842434   1.902591   3.145466   0.000000
     6  O    3.454333   2.844041   3.130236   1.906726   4.046119
     7  O    0.996428   2.673220   3.025994   3.047974   3.946012
     8  H    4.200928   3.431477   2.743328   3.158918   1.879763
     9  H    3.129979   3.079182   2.290476   3.416429   0.995947
    10  H    4.152506   3.554707   2.586617   3.971872   0.964969
    11  H    4.203414   3.581011   3.977168   2.611868   4.976893
    12  H    4.226241   3.433403   3.142794   2.757398   3.128407
    13  H    3.151520   3.064442   3.379099   2.279281   4.183426
    14  H    1.567238   3.185361   3.653147   3.664309   4.712424
    15  H    2.254112   3.337125   3.698524   3.121756   4.427460
    16  H    2.281874   3.382012   3.148388   3.775173   3.022505
    17  O    3.051511   3.798003   4.093880   3.353547   4.666239
    18  H    5.029662   5.441574   5.091931   5.135299   4.301578
    19  H    3.514359   4.307321   3.908316   4.442339   3.168830
    20  O    3.082034   3.854791   3.392637   4.192289   2.677747
    21  H    3.470002   4.238913   4.325373   3.869319   4.485686
    22  O    4.555344   5.262241   5.009345   5.050642   4.408902
    23  O    4.708164   3.947583   3.430990   3.446966   2.844008
    24  H    5.340302   6.171470   5.947294   5.964114   5.318554
    25  O    5.926565   5.869215   5.412500   5.420225   4.454840
    26  H    5.404469   5.118522   4.638498   4.640092   3.761618
    27  H    6.637466   6.507115   5.943612   6.118909   4.734858
                    6          7          8          9         10
     6  O    0.000000
     7  O    4.001138   0.000000
     8  H    3.119333   4.724425   0.000000
     9  H    4.216965   3.417462   2.339695   0.000000
    10  H    4.969564   4.656065   2.551878   1.563741   0.000000
    11  H    0.964938   4.727586   3.936251   5.180221   5.882812
    12  H    1.881235   4.762930   1.538269   3.458122   3.943809
    13  H    0.995387   3.468044   3.407052   4.115208   5.145424
    14  H    4.752636   0.964784   5.624445   4.210676   5.339215
    15  H    3.038450   1.900446   4.430650   3.921867   5.319966
    16  H    4.533053   1.895042   4.001853   2.151096   3.594168
    17  O    2.679000   2.841288   4.266937   4.225779   5.599352
    18  H    4.402527   4.834294   3.574403   3.735867   4.973140
    19  H    4.653531   3.179864   3.626442   2.235524   3.735025
    20  O    4.802179   2.838620   3.634980   1.689443   3.141131
    21  H    3.186364   3.163232   4.051111   3.926970   5.374346
    22  O    4.507335   4.191291   4.030697   3.686753   5.105851
    23  O    2.840331   5.198892   0.976909   3.208198   3.523631
    24  H    5.346345   4.856600   4.951271   4.552208   5.965674
    25  O    4.434488   5.977797   3.138275   4.231120   5.050704
    26  H    3.717076   5.608903   2.233972   3.716664   4.398347
    27  H    5.246555   6.707175   3.476030   4.560883   5.173806
                   11         12         13         14         15
    11  H    0.000000
    12  H    2.538661   0.000000
    13  H    1.564484   2.331412   0.000000
    14  H    5.397963   5.656190   4.247159   0.000000
    15  H    3.627245   3.989271   2.169921   2.613637   0.000000
    16  H    5.426349   4.536285   4.013786   2.606202   2.692035
    17  O    3.164844   3.588968   1.693885   3.585748   0.976617
    18  H    5.070044   3.656056   3.827860   5.742068   3.759275
    19  H    5.536543   4.221430   4.080841   3.992864   3.109285
    20  O    5.732251   4.413002   4.344550   3.578022   3.336567
    21  H    3.769333   3.588274   2.263929   3.984727   1.539017
    22  O    5.201155   4.108302   3.781757   5.040680   3.164324
    23  O    3.510589   0.977251   3.176525   6.122224   4.554389
    24  H    5.970530   4.999106   4.564128   5.628658   3.784558
    25  O    4.994877   3.154441   4.183266   6.933533   4.888608
    26  H    4.318540   2.229895   3.642682   6.573371   4.636561
    27  H    5.819187   3.766314   5.075799   7.661836   5.759813
                   16         17         18         19         20
    16  H    0.000000
    17  O    3.325940   0.000000
    18  H    3.755116   3.296324   0.000000
    19  H    1.540956   3.331829   2.410001   0.000000
    20  O    0.977077   3.767809   3.303953   0.977299   0.000000
    21  H    3.071851   0.977497   2.388945   2.667444   3.302883
    22  O    3.151689   2.851536   0.993177   1.886927   2.846517
    23  O    4.615098   4.185714   3.446398   4.088253   4.286717
    24  H    3.827233   3.450355   1.558072   2.559112   3.528654
    25  O    4.964442   4.291289   1.693042   3.714501   4.423804
    26  H    4.724206   4.091123   2.171293   3.696355   4.240678
    27  H    5.517797   5.216669   2.367467   4.195730   4.849088
                   21         22         23         24         25
    21  H    0.000000
    22  O    1.884270   0.000000
    23  O    3.978887   4.044798   0.000000
    24  H    2.487498   0.965082   4.917512   0.000000
    25  O    3.583552   2.676025   2.688383   3.153918   0.000000
    26  H    3.548207   3.032453   1.697862   3.723234   0.993845
    27  H    4.480797   3.343323   3.101080   3.719326   0.964590
                   26         27
    26  H    0.000000
    27  H    1.553516   0.000000
 Stoichiometry    H18O9
 Framework group  C1[X(H18O9)]
 Deg. of freedom    75
 Full point group                 C1      NOp   1
 Largest Abelian subgroup         C1      NOp   1
 Largest concise Abelian subgroup C1      NOp   1
                         Standard orientation:                         
 ---------------------------------------------------------------------
 Center     Atomic      Atomic             Coordinates (Angstroms)
 Number     Number       Type             X           Y           Z
 ---------------------------------------------------------------------
      1          1           0       -2.583349    0.420483   -0.054260
      2          8           0       -2.440538   -1.251111    0.154411
      3          1           0       -1.861025   -1.351243    0.934854
      4          1           0       -1.885483   -1.561452   -0.587476
      5          8           0       -0.431884   -1.059274    2.156395
      6          8           0       -0.457808   -1.626725   -1.849651
      7          8           0       -2.458812    1.402554   -0.167821
      8          1           0        0.849983   -1.768801    0.978728
      9          1           0       -0.336327   -0.071843    2.068304
     10          1           0       -0.457547   -1.236629    3.104578
     11          1           0       -0.459465   -2.035460   -2.723745
     12          1           0        0.833164   -2.019537   -0.538875
     13          1           0       -0.352297   -0.649396   -2.006143
     14          1           0       -3.345112    1.779742   -0.222688
     15          1           0       -1.119667    1.319677   -1.513748
     16          1           0       -1.131450    1.703831    1.150711
     17          8           0       -0.323289    1.044240   -2.007404
     18          1           0        2.373486    1.270321   -0.125371
     19          1           0        0.404640    1.826185    1.148506
     20          8           0       -0.348120    1.581643    1.721800
     21          1           0        0.416106    1.415938   -1.487177
     22          8           0        1.691361    1.985646   -0.222411
     23          8           0        1.429670   -2.024655    0.235188
     24          1           0        2.188790    2.790586   -0.412197
     25          8           0        3.317212   -0.133996   -0.064808
     26          1           0        2.662619   -0.876334    0.025583
     27          1           0        3.980596   -0.302637    0.614836
 ---------------------------------------------------------------------
 Rotational constants (GHZ):           0.8098725           0.6321438           0.5844583
 Leave Link  202 at Fri Aug  1 13:20:30 2025, MaxMem=  3221225472 cpu:               1.3 elap:               0.1
 (Enter /apps/scratch/compile/gaussian/g16/l301.exe)
 Standard basis: Aug-CC-pVTZ (5D, 7F)
 Ernie: Thresh=  0.10000D-02 Tol=  0.10000D-05 Strict=F.
 Ernie:  27 primitive shells out of 468 were deleted.
 There are   945 symmetry adapted cartesian basis functions of A   symmetry.
 There are   828 symmetry adapted basis functions of A   symmetry.
   828 basis functions,  1134 primitive gaussians,   945 cartesian basis functions
    45 alpha electrons       45 beta electrons
       nuclear repulsion energy       609.4927555448 Hartrees.
 IExCor=    0 DFT=F Ex=HF Corr=None ExCW=0 ScaHFX=  1.000000
 ScaDFX=  1.000000  1.000000  1.000000  1.000000 ScalE2=  1.000000  1.000000
 IRadAn=      5 IRanWt=     -1 IRanGd=            0 ICorTp=0 IEmpDi=  4
 NAtoms=   27 NActive=   27 NUniq=   27 SFac= 1.00D+00 NAtFMM=   60 NAOKFM=F Big=F
 Integral buffers will be    131072 words long.
 Raffenetti 1 integral format.
 Two-electron integral symmetry is turned on.
 Leave Link  301 at Fri Aug  1 13:20:30 2025, MaxMem=  3221225472 cpu:               3.3 elap:               0.1
 (Enter /apps/scratch/compile/gaussian/g16/l302.exe)
 NPDir=0 NMtPBC=     1 NCelOv=     1 NCel=       1 NClECP=     1 NCelD=      1
         NCelK=      1 NCelE2=     1 NClLst=     1 CellRange=     0.0.
 One-electron integrals computed using PRISM.
 One-electron integral symmetry used in STVInt
 NBasis=   828 RedAO= T EigKep=  2.06D-05  NBF=   828
 NBsUse=   828 1.00D-06 EigRej= -1.00D+00 NBFU=   828
 Leave Link  302 at Fri Aug  1 13:20:32 2025, MaxMem=  3221225472 cpu:              65.5 elap:               1.7
 (Enter /apps/scratch/compile/gaussian/g16/l303.exe)
 DipDrv:  MaxL=1.
 Leave Link  303 at Fri Aug  1 13:20:32 2025, MaxMem=  3221225472 cpu:               7.9 elap:               0.2
 (Enter /apps/scratch/compile/gaussian/g16/l401.exe)
 ExpMin= 2.53D-02 ExpMax= 1.53D+04 ExpMxC= 5.22D+02 IAcc=3 IRadAn=         5 AccDes= 0.00D+00
 Harris functional with IExCor=  205 and IRadAn=       5 diagonalized for initial guess.
 HarFok:  IExCor=  205 AccDes= 0.00D+00 IRadAn=         5 IDoV= 1 UseB2=F ITyADJ=14
 ICtDFT=  3500011 ScaDFX=  1.000000  1.000000  1.000000  1.000000
 FoFCou: FMM=F IPFlag=           0 FMFlag=      100000 FMFlg1=           0
         NFxFlg=           0 DoJE=T BraDBF=F KetDBF=T FulRan=T
         wScrn=  0.000000 ICntrl=       500 IOpCl=  0 I1Cent=   200000004 NGrid=           0
         NMat0=    1 NMatS0=      1 NMatT0=    0 NMatD0=    1 NMtDS0=    0 NMtDT0=    0
 Petite list used in FoFCou.
 Harris En= -685.465145605260    
 JPrj=0 DoOrth=F DoCkMO=F.
 Leave Link  401 at Fri Aug  1 13:20:35 2025, MaxMem=  3221225472 cpu:             100.4 elap:               2.6
 (Enter /apps/scratch/compile/gaussian/g16/l502.exe)
 Integral symmetry usage will be decided dynamically.
 Closed shell SCF:
 Using DIIS extrapolation, IDIIS=  1040.
 NGot=  3221225472 LenX=  3219393212 LenY=  3218499242
 Requested convergence on RMS density matrix=1.00D-08 within 128 cycles.
 Requested convergence on MAX density matrix=1.00D-06.
 Requested convergence on             energy=1.00D-06.
 No special actions if energy rises.
 Fock matrices will be formed incrementally for  20 cycles.

 Cycle   1  Pass 1  IDiag  1:
 FoFJK:  IHMeth= 1 ICntrl=       0 DoSepK=F KAlg= 0 I1Cent=           0 FoldK=F
 IRaf= 940000000 NMat=       1 IRICut=       1 DoRegI=T DoRafI=F ISym2E= 0 IDoP0=0 IntGTp=1.
 FoFCou: FMM=F IPFlag=           0 FMFlag=      100000 FMFlg1=           0
         NFxFlg=           0 DoJE=F BraDBF=F KetDBF=F FulRan=T
         wScrn=  0.000000 ICntrl=         0 IOpCl=  0 I1Cent=           0 NGrid=           0
         NMat0=    1 NMatS0=      1 NMatT0=    0 NMatD0=    1 NMtDS0=    0 NMtDT0=    0
 Symmetry not used in FoFCou.
 E= -684.007479599638    
 DIIS: error= 2.51D-02 at cycle   1 NSaved=   1.
 NSaved= 1 IEnMin= 1 EnMin= -684.007479599638     IErMin= 1 ErrMin= 2.51D-02
 ErrMax= 2.51D-02  0.00D+00 EMaxC= 1.00D-01 BMatC= 1.61D+00 BMatP= 1.61D+00
 IDIUse=3 WtCom= 7.49D-01 WtEn= 2.51D-01
 Coeff-Com:  0.100D+01
 Coeff-En:   0.100D+01
 Coeff:      0.100D+01
 Gap=     0.500 Goal=   None    Shift=    0.000
 GapD=    0.500 DampG=2.000 DampE=0.500 DampFc=1.0000 IDamp=-1.
 RMSDP=7.85D-04 MaxDP=4.42D-02              OVMax= 1.01D-01

 Cycle   2  Pass 1  IDiag  1:
 RMSU=  7.62D-04    CP:  9.64D-01
 E= -684.424079012793     Delta-E=       -0.416599413155 Rises=F Damp=F
 DIIS: error= 1.30D-02 at cycle   2 NSaved=   2.
 NSaved= 2 IEnMin= 2 EnMin= -684.424079012793     IErMin= 2 ErrMin= 1.30D-02
 ErrMax= 1.30D-02  0.00D+00 EMaxC= 1.00D-01 BMatC= 3.25D-01 BMatP= 1.61D+00
 IDIUse=3 WtCom= 8.70D-01 WtEn= 1.30D-01
 Coeff-Com:  0.268D+00 0.732D+00
 Coeff-En:   0.685D-01 0.932D+00
 Coeff:      0.242D+00 0.758D+00
 Gap=     0.540 Goal=   None    Shift=    0.000
 RMSDP=5.05D-04 MaxDP=4.15D-02 DE=-4.17D-01 OVMax= 5.07D-02

 Cycle   3  Pass 1  IDiag  1:
 RMSU=  4.62D-04    CP:  9.57D-01  7.37D-01
 E= -684.608446164671     Delta-E=       -0.184367151878 Rises=F Damp=F
 DIIS: error= 3.28D-03 at cycle   3 NSaved=   3.
 NSaved= 3 IEnMin= 3 EnMin= -684.608446164671     IErMin= 3 ErrMin= 3.28D-03
 ErrMax= 3.28D-03  0.00D+00 EMaxC= 1.00D-01 BMatC= 1.78D-02 BMatP= 3.25D-01
 IDIUse=3 WtCom= 9.67D-01 WtEn= 3.28D-02
 Coeff-Com: -0.283D-01 0.157D+00 0.871D+00
 Coeff-En:   0.000D+00 0.000D+00 0.100D+01
 Coeff:     -0.274D-01 0.152D+00 0.875D+00
 Gap=     0.513 Goal=   None    Shift=    0.000
 RMSDP=8.76D-05 MaxDP=6.92D-03 DE=-1.84D-01 OVMax= 9.96D-03

 Cycle   4  Pass 1  IDiag  1:
 RMSU=  3.57D-05    CP:  9.59D-01  7.98D-01  8.61D-01
 E= -684.619013085234     Delta-E=       -0.010566920563 Rises=F Damp=F
 DIIS: error= 2.30D-04 at cycle   4 NSaved=   4.
 NSaved= 4 IEnMin= 4 EnMin= -684.619013085234     IErMin= 4 ErrMin= 2.30D-04
 ErrMax= 2.30D-04  0.00D+00 EMaxC= 1.00D-01 BMatC= 6.88D-05 BMatP= 1.78D-02
 IDIUse=3 WtCom= 9.98D-01 WtEn= 2.30D-03
 Coeff-Com:  0.603D-02-0.470D-01-0.243D+00 0.128D+01
 Coeff-En:   0.000D+00 0.000D+00 0.000D+00 0.100D+01
 Coeff:      0.602D-02-0.469D-01-0.242D+00 0.128D+01
 Gap=     0.513 Goal=   None    Shift=    0.000
 RMSDP=1.86D-05 MaxDP=1.26D-03 DE=-1.06D-02 OVMax= 2.40D-03

 Cycle   5  Pass 1  IDiag  1:
 RMSU=  8.24D-06    CP:  9.60D-01  7.99D-01  8.43D-01  1.36D+00
 E= -684.619173586862     Delta-E=       -0.000160501628 Rises=F Damp=F
 DIIS: error= 7.76D-05 at cycle   5 NSaved=   5.
 NSaved= 5 IEnMin= 5 EnMin= -684.619173586862     IErMin= 5 ErrMin= 7.76D-05
 ErrMax= 7.76D-05  0.00D+00 EMaxC= 1.00D-01 BMatC= 9.29D-06 BMatP= 6.88D-05
 IDIUse=1 WtCom= 1.00D+00 WtEn= 0.00D+00
 Coeff-Com:  0.245D-02-0.158D-01-0.797D-01 0.169D+00 0.924D+00
 Coeff:      0.245D-02-0.158D-01-0.797D-01 0.169D+00 0.924D+00
 Gap=     0.514 Goal=   None    Shift=    0.000
 RMSDP=4.07D-06 MaxDP=4.99D-04 DE=-1.61D-04 OVMax= 7.33D-04

 Cycle   6  Pass 1  IDiag  1:
 RMSU=  2.85D-06    CP:  9.60D-01  7.98D-01  8.40D-01  1.42D+00  1.18D+00
 E= -684.619188239030     Delta-E=       -0.000014652167 Rises=F Damp=F
 DIIS: error= 3.63D-05 at cycle   6 NSaved=   6.
 NSaved= 6 IEnMin= 6 EnMin= -684.619188239030     IErMin= 6 ErrMin= 3.63D-05
 ErrMax= 3.63D-05  0.00D+00 EMaxC= 1.00D-01 BMatC= 1.65D-06 BMatP= 9.29D-06
 IDIUse=1 WtCom= 1.00D+00 WtEn= 0.00D+00
 Coeff-Com: -0.648D-03 0.570D-02 0.320D-01-0.218D+00 0.174D+00 0.101D+01
 Coeff:     -0.648D-03 0.570D-02 0.320D-01-0.218D+00 0.174D+00 0.101D+01
 Gap=     0.514 Goal=   None    Shift=    0.000
 RMSDP=2.05D-06 MaxDP=1.52D-04 DE=-1.47D-05 OVMax= 4.30D-04

 Cycle   7  Pass 1  IDiag  1:
 RMSU=  8.40D-07    CP:  9.60D-01  7.97D-01  8.39D-01  1.43D+00  1.36D+00
                    CP:  1.15D+00
 E= -684.619190924149     Delta-E=       -0.000002685119 Rises=F Damp=F
 DIIS: error= 8.43D-06 at cycle   7 NSaved=   7.
 NSaved= 7 IEnMin= 7 EnMin= -684.619190924149     IErMin= 7 ErrMin= 8.43D-06
 ErrMax= 8.43D-06  0.00D+00 EMaxC= 1.00D-01 BMatC= 3.96D-08 BMatP= 1.65D-06
 IDIUse=1 WtCom= 1.00D+00 WtEn= 0.00D+00
 Coeff-Com: -0.522D-04 0.161D-03-0.124D-03 0.194D-01-0.740D-01-0.127D+00
 Coeff-Com:  0.118D+01
 Coeff:     -0.522D-04 0.161D-03-0.124D-03 0.194D-01-0.740D-01-0.127D+00
 Coeff:      0.118D+01
 Gap=     0.514 Goal=   None    Shift=    0.000
 RMSDP=4.20D-07 MaxDP=2.44D-05 DE=-2.69D-06 OVMax= 6.45D-05

 Cycle   8  Pass 1  IDiag  1:
 RMSU=  1.63D-07    CP:  9.60D-01  7.97D-01  8.39D-01  1.43D+00  1.38D+00
                    CP:  1.23D+00  1.22D+00
 E= -684.619191007802     Delta-E=       -0.000000083653 Rises=F Damp=F
 DIIS: error= 1.68D-06 at cycle   8 NSaved=   8.
 NSaved= 8 IEnMin= 8 EnMin= -684.619191007802     IErMin= 8 ErrMin= 1.68D-06
 ErrMax= 1.68D-06  0.00D+00 EMaxC= 1.00D-01 BMatC= 3.49D-09 BMatP= 3.96D-08
 IDIUse=1 WtCom= 1.00D+00 WtEn= 0.00D+00
 Coeff-Com:  0.146D-04-0.194D-03-0.132D-02 0.129D-01-0.218D-01-0.662D-01
 Coeff-Com:  0.241D+00 0.835D+00
 Coeff:      0.146D-04-0.194D-03-0.132D-02 0.129D-01-0.218D-01-0.662D-01
 Coeff:      0.241D+00 0.835D+00
 Gap=     0.514 Goal=   None    Shift=    0.000
 RMSDP=6.47D-08 MaxDP=4.02D-06 DE=-8.37D-08 OVMax= 1.13D-05

 Cycle   9  Pass 1  IDiag  1:
 RMSU=  5.38D-08    CP:  9.60D-01  7.97D-01  8.39D-01  1.43D+00  1.38D+00
                    CP:  1.24D+00  1.25D+00  1.09D+00
 E= -684.619191011847     Delta-E=       -0.000000004045 Rises=F Damp=F
 DIIS: error= 7.06D-07 at cycle   9 NSaved=   9.
 NSaved= 9 IEnMin= 9 EnMin= -684.619191011847     IErMin= 9 ErrMin= 7.06D-07
 ErrMax= 7.06D-07  0.00D+00 EMaxC= 1.00D-01 BMatC= 4.44D-10 BMatP= 3.49D-09
 IDIUse=1 WtCom= 1.00D+00 WtEn= 0.00D+00
 Coeff-Com:  0.103D-04-0.502D-04-0.129D-03-0.169D-02 0.992D-02 0.136D-01
 Coeff-Com: -0.171D+00 0.712D-01 0.108D+01
 Coeff:      0.103D-04-0.502D-04-0.129D-03-0.169D-02 0.992D-02 0.136D-01
 Coeff:     -0.171D+00 0.712D-01 0.108D+01
 Gap=     0.514 Goal=   None    Shift=    0.000
 RMSDP=3.51D-08 MaxDP=1.91D-06 DE=-4.04D-09 OVMax= 5.59D-06

 Cycle  10  Pass 1  IDiag  1:
 RMSU=  1.83D-08    CP:  9.60D-01  7.97D-01  8.39D-01  1.43D+00  1.38D+00
                    CP:  1.24D+00  1.25D+00  1.25D+00  1.23D+00
 E= -684.619191012553     Delta-E=       -0.000000000707 Rises=F Damp=F
 DIIS: error= 8.95D-08 at cycle  10 NSaved=  10.
 NSaved=10 IEnMin=10 EnMin= -684.619191012553     IErMin=10 ErrMin= 8.95D-08
 ErrMax= 8.95D-08  0.00D+00 EMaxC= 1.00D-01 BMatC= 1.51D-11 BMatP= 4.44D-10
 IDIUse=1 WtCom= 1.00D+00 WtEn= 0.00D+00
 Coeff-Com: -0.644D-06 0.118D-04 0.865D-04-0.926D-03 0.165D-02 0.471D-02
 Coeff-Com: -0.206D-01-0.497D-01 0.407D-01 0.102D+01
 Coeff:     -0.644D-06 0.118D-04 0.865D-04-0.926D-03 0.165D-02 0.471D-02
 Coeff:     -0.206D-01-0.497D-01 0.407D-01 0.102D+01
 Gap=     0.514 Goal=   None    Shift=    0.000
 RMSDP=8.17D-09 MaxDP=6.51D-07 DE=-7.07D-10 OVMax= 1.05D-06

 SCF Done:  E(RHF) =  -684.619191013     A.U. after   10 cycles
            NFock= 10  Conv=0.82D-08     -V/T= 2.0016
 KE= 6.835491771907D+02 PE=-2.844861443359D+03 EE= 8.672003196110D+02
 Leave Link  502 at Fri Aug  1 13:25:03 2025, MaxMem=  3221225472 cpu:           10712.8 elap:             268.0
 (Enter /apps/scratch/compile/gaussian/g16/l801.exe)
 ExpMin= 2.53D-02 ExpMax= 1.53D+04 ExpMxC= 5.22D+02 IAcc=3 IRadAn=         5 AccDes= 0.00D+00
 HarFok:  IExCor=  205 AccDes= 0.00D+00 IRadAn=         5 IDoV=-2 UseB2=F ITyADJ=14
 ICtDFT= 12500011 ScaDFX=  1.000000  1.000000  1.000000  1.000000
 DSYEVD-2 returned Info=          93 IAlg= 4 N=    46 NDim=    46 NE2=    69984518 trying  DSYEV.
 Largest valence mixing into a core orbital is  1.10D-04
 Largest core mixing into a valence orbital is  1.98D-05
 Range of M.O.s used for correlation:    10   828
 NBasis=   828 NAE=    45 NBE=    45 NFC=     9 NFV=     0
 NROrb=    819 NOA=    36 NOB=    36 NVA=   783 NVB=   783

 **** Warning!!: The largest alpha MO coefficient is  0.29459327D+02

 Leave Link  801 at Fri Aug  1 13:25:03 2025, MaxMem=  3221225472 cpu:               8.5 elap:               0.3
 (Enter /apps/scratch/compile/gaussian/g16/l906.exe)
 Frozen-core derivative calculation, NFC=   9 NFV=   0.
 FulOut=F Deriv=T AODrv=T NAtomX=    27
   MMem=           0  MDisk=          36 MDiskD=          36
  W3Min=    35210700 MinDsk=    47869835 NBas6D=         945
 NBas2D=      449010    NTT=      446985    LW2=     3500000
    MDV=  3214017291 MDiskM=       16994 NBas2p=      409186
 Disk-based method using ON**2 memory for 36 occupieds at a time.
 Estimated scratch disk usage= 58554388376 words.
 IMap=   1   2   3   4   5   6   7   8   9  10  11  12  13  14  15  16  17  18  19  20
 IMap=  21  22  23  24  25  26  27  28  29  30  31  32  33  34  35  36  37  38  39  40
 IMap=  41  42  43  44  45
 Actual    scratch disk usage= 55452407704 words.
 JobTyp=1 Pass  1:  I=  10 to  45 NPSUse= 40 ParTrn=T ParDer=T DoDerP=T.
 Spin components of T(2) and E(2):
     alpha-alpha T2 =       0.7738839549D-01 E2=     -0.3082131347D+00
     alpha-beta  T2 =       0.4300294399D+00 E2=     -0.1861813404D+01
     beta-beta   T2 =       0.7738839549D-01 E2=     -0.3082131347D+00
 The integrals were generated   1 times.
 ANorm=    0.1258890873D+01
 E2 =    -0.2478239674D+01 EUMP2 =    -0.68709743068635D+03
 Leave Link  906 at Fri Aug  1 14:28:24 2025, MaxMem=  3221225472 cpu:          151534.6 elap:            3800.5
 (Enter /apps/scratch/compile/gaussian/g16/l1002.exe)
 Minotr:  Closed shell wavefunction.
          Computing MP2/KS-MP2 derivatives.
          Using Z-Vector for PSCF gradient.
          Skipping F1 and S1 gradient terms here.
          IDoAtm=111111111111111111111111111
          Frozen-core window.
          Direct CPHF calculation.
          Differentiating once with respect to electric field.
                with respect to dipole field.
          Differentiating once with respect to nuclear coordinates.
          Requested convergence is 1.0D-10 RMS, and 1.0D-09 maximum.
          NewPWx=F KeepS1=T KeepF1=T KeepIn=T MapXYZ=F SortEE=F KeepMc=T.
 Two-electron integral symmetry used by symmetrizing perturbed Fock matrices.
          MDV=    3221225472 using IRadAn=       5.
          Solving linear equations separately, MaxMat=     360.
          There are     1 degrees of freedom in the 1st order CPHF.  IDoFFX=0 NUNeed=     1.
 FoFJK:  IHMeth= 1 ICntrl=       0 DoSepK=F KAlg= 0 I1Cent=           0 FoldK=F
 IRaf= 950000000 NMat=       1 IRICut=       1 DoRegI=T DoRafI=F ISym2E=-1 IDoP0=0 IntGTp=1.
 FoFCou: FMM=F IPFlag=           0 FMFlag=      100000 FMFlg1=           0
         NFxFlg=           0 DoJE=F BraDBF=F KetDBF=F FulRan=T
         wScrn=  0.000000 ICntrl=         0 IOpCl=  0 I1Cent=           0 NGrid=           0
         NMat0=    1 NMatS0=      1 NMatT0=    0 NMatD0=    1 NMtDS0=    0 NMtDT0=    0
 Petite list used in FoFCou.
 LinEq1:  Iter=  0 NonCon=     1 RMS=1.71D-03 Max=2.72D-02 NDo=     1
 AX will form     1 AO Fock derivatives at one time.
 LinEq1:  Iter=  1 NonCon=     1 RMS=1.87D-04 Max=2.55D-03 NDo=     1
 LinEq1:  Iter=  2 NonCon=     1 RMS=3.27D-05 Max=4.23D-04 NDo=     1
 LinEq1:  Iter=  3 NonCon=     1 RMS=1.45D-05 Max=1.86D-04 NDo=     1
 LinEq1:  Iter=  4 NonCon=     1 RMS=2.51D-06 Max=3.12D-05 NDo=     1
 LinEq1:  Iter=  5 NonCon=     1 RMS=7.84D-07 Max=1.53D-05 NDo=     1
 LinEq1:  Iter=  6 NonCon=     1 RMS=2.87D-07 Max=3.95D-06 NDo=     1
 LinEq1:  Iter=  7 NonCon=     1 RMS=9.21D-08 Max=1.08D-06 NDo=     1
 LinEq1:  Iter=  8 NonCon=     1 RMS=1.62D-08 Max=1.95D-07 NDo=     1
 LinEq1:  Iter=  9 NonCon=     1 RMS=3.61D-09 Max=5.99D-08 NDo=     1
 LinEq1:  Iter= 10 NonCon=     1 RMS=1.41D-09 Max=2.82D-08 NDo=     1
 LinEq1:  Iter= 11 NonCon=     1 RMS=3.72D-10 Max=5.73D-09 NDo=     1
 LinEq1:  Iter= 12 NonCon=     1 RMS=7.68D-11 Max=1.09D-09 NDo=     1
 LinEq1:  Iter= 13 NonCon=     0 RMS=2.75D-11 Max=3.89D-10 NDo=     1
 Linear equations converged to 1.000D-10 1.000D-09 after    13 iterations.
 End of Minotr F.D. properties file   721 does not exist.
 End of Minotr F.D. properties file   722 does not exist.
 End of Minotr F.D. properties file   788 does not exist.
 Leave Link 1002 at Fri Aug  1 14:35:44 2025, MaxMem=  3221225472 cpu:           17538.6 elap:             439.9
 (Enter /apps/scratch/compile/gaussian/g16/l601.exe)
 Copying SCF densities to generalized density rwf, IOpCl= 0 IROHF=0.

 **********************************************************************

            Population analysis using the SCF Density.

 **********************************************************************

 Orbital symmetries:
       Occupied  (A) (A) (A) (A) (A) (A) (A) (A) (A) (A) (A) (A)
                 (A) (A) (A) (A) (A) (A) (A) (A) (A) (A) (A) (A)
                 (A) (A) (A) (A) (A) (A) (A) (A) (A) (A) (A) (A)
                 (A) (A) (A) (A) (A) (A) (A) (A) (A)
       Virtual   (A) (A) (A) (A) (A) (A) (A) (A) (A) (A) (A) (A)
                 (A) (A) (A) (A) (A) (A) (A) (A) (A) (A) (A) (A)
                 (A) (A) (A) (A) (A) (A) (A) (A) (A) (A) (A) (A)
                 (A) (A) (A) (A) (A) (A) (A) (A) (A) (A) (A) (A)
                 (A) (A) (A) (A) (A) (A) (A) (A) (A) (A) (A) (A)
                 (A) (A) (A) (A) (A) (A) (A) (A) (A) (A) (A) (A)
                 (A) (A) (A) (A) (A) (A) (A) (A) (A) (A) (A) (A)
                 (A) (A) (A) (A) (A) (A) (A) (A) (A) (A) (A) (A)
                 (A) (A) (A) (A) (A) (A) (A) (A) (A) (A) (A) (A)
                 (A) (A) (A) (A) (A) (A) (A) (A) (A) (A) (A) (A)
                 (A) (A) (A) (A) (A) (A) (A) (A) (A) (A) (A) (A)
                 (A) (A) (A) (A) (A) (A) (A) (A) (A) (A) (A) (A)
                 (A) (A) (A) (A) (A) (A) (A) (A) (A) (A) (A) (A)
                 (A) (A) (A) (A) (A) (A) (A) (A) (A) (A) (A) (A)
                 (A) (A) (A) (A) (A) (A) (A) (A) (A) (A) (A) (A)
                 (A) (A) (A) (A) (A) (A) (A) (A) (A) (A) (A) (A)
                 (A) (A) (A) (A) (A) (A) (A) (A) (A) (A) (A) (A)
                 (A) (A) (A) (A) (A) (A) (A) (A) (A) (A) (A) (A)
                 (A) (A) (A) (A) (A) (A) (A) (A) (A) (A) (A) (A)
                 (A) (A) (A) (A) (A) (A) (A) (A) (A) (A) (A) (A)
                 (A) (A) (A) (A) (A) (A) (A) (A) (A) (A) (A) (A)
                 (A) (A) (A) (A) (A) (A) (A) (A) (A) (A) (A) (A)
                 (A) (A) (A) (A) (A) (A) (A) (A) (A) (A) (A) (A)
                 (A) (A) (A) (A) (A) (A) (A) (A) (A) (A) (A) (A)
                 (A) (A) (A) (A) (A) (A) (A) (A) (A) (A) (A) (A)
                 (A) (A) (A) (A) (A) (A) (A) (A) (A) (A) (A) (A)
                 (A) (A) (A) (A) (A) (A) (A) (A) (A) (A) (A) (A)
                 (A) (A) (A) (A) (A) (A) (A) (A) (A) (A) (A) (A)
                 (A) (A) (A) (A) (A) (A) (A) (A) (A) (A) (A) (A)
                 (A) (A) (A) (A) (A) (A) (A) (A) (A) (A) (A) (A)
                 (A) (A) (A) (A) (A) (A) (A) (A) (A) (A) (A) (A)
                 (A) (A) (A) (A) (A) (A) (A) (A) (A) (A) (A) (A)
                 (A) (A) (A) (A) (A) (A) (A) (A) (A) (A) (A) (A)
                 (A) (A) (A) (A) (A) (A) (A) (A) (A) (A) (A) (A)
                 (A) (A) (A) (A) (A) (A) (A) (A) (A) (A) (A) (A)
                 (A) (A) (A) (A) (A) (A) (A) (A) (A) (A) (A) (A)
                 (A) (A) (A) (A) (A) (A) (A) (A) (A) (A) (A) (A)
                 (A) (A) (A) (A) (A) (A) (A) (A) (A) (A) (A) (A)
                 (A) (A) (A) (A) (A) (A) (A) (A) (A) (A) (A) (A)
                 (A) (A) (A) (A) (A) (A) (A) (A) (A) (A) (A) (A)
                 (A) (A) (A) (A) (A) (A) (A) (A) (A) (A) (A) (A)
                 (A) (A) (A) (A) (A) (A) (A) (A) (A) (A) (A) (A)
                 (A) (A) (A) (A) (A) (A) (A) (A) (A) (A) (A) (A)
                 (A) (A) (A) (A) (A) (A) (A) (A) (A) (A) (A) (A)
                 (A) (A) (A) (A) (A) (A) (A) (A) (A) (A) (A) (A)
                 (A) (A) (A) (A) (A) (A) (A) (A) (A) (A) (A) (A)
                 (A) (A) (A) (A) (A) (A) (A) (A) (A) (A) (A) (A)
                 (A) (A) (A) (A) (A) (A) (A) (A) (A) (A) (A) (A)
                 (A) (A) (A) (A) (A) (A) (A) (A) (A) (A) (A) (A)
                 (A) (A) (A) (A) (A) (A) (A) (A) (A) (A) (A) (A)
                 (A) (A) (A) (A) (A) (A) (A) (A) (A) (A) (A) (A)
                 (A) (A) (A) (A) (A) (A) (A) (A) (A) (A) (A) (A)
                 (A) (A) (A) (A) (A) (A) (A) (A) (A) (A) (A) (A)
                 (A) (A) (A) (A) (A) (A) (A) (A) (A) (A) (A) (A)
                 (A) (A) (A) (A) (A) (A) (A) (A) (A) (A) (A) (A)
                 (A) (A) (A) (A) (A) (A) (A) (A) (A) (A) (A) (A)
                 (A) (A) (A) (A) (A) (A) (A) (A) (A) (A) (A) (A)
                 (A) (A) (A) (A) (A) (A) (A) (A) (A) (A) (A) (A)
                 (A) (A) (A) (A) (A) (A) (A) (A) (A) (A) (A) (A)
                 (A) (A) (A) (A) (A) (A) (A) (A) (A) (A) (A) (A)
                 (A) (A) (A) (A) (A) (A) (A) (A) (A) (A) (A) (A)
                 (A) (A) (A) (A) (A) (A) (A) (A) (A) (A) (A) (A)
                 (A) (A) (A) (A) (A) (A) (A) (A) (A) (A) (A) (A)
                 (A) (A) (A) (A) (A) (A) (A) (A) (A) (A) (A) (A)
                 (A) (A) (A) (A) (A) (A) (A) (A) (A) (A) (A) (A)
                 (A) (A) (A)
 The electronic state is 1-A.
 Alpha  occ. eigenvalues --  -20.57322 -20.56958 -20.56889 -20.56720 -20.55804
 Alpha  occ. eigenvalues --  -20.55081 -20.54985 -20.54925 -20.54319  -1.36908
 Alpha  occ. eigenvalues --   -1.36260  -1.35791  -1.35559  -1.34498  -1.33615
 Alpha  occ. eigenvalues --   -1.33287  -1.32672  -1.32279  -0.73573  -0.73327
 Alpha  occ. eigenvalues --   -0.73057  -0.72764  -0.71272  -0.70790  -0.70602
 Alpha  occ. eigenvalues --   -0.70420  -0.70039  -0.64791  -0.62906  -0.60428
 Alpha  occ. eigenvalues --   -0.59965  -0.59182  -0.57156  -0.56875  -0.56409
 Alpha  occ. eigenvalues --   -0.53886  -0.51901  -0.51539  -0.51362  -0.51214
 Alpha  occ. eigenvalues --   -0.50460  -0.49840  -0.49579  -0.49491  -0.48879
 Alpha virt. eigenvalues --    0.02531   0.03385   0.03620   0.03859   0.04744
 Alpha virt. eigenvalues --    0.06167   0.06199   0.06406   0.06556   0.07760
 Alpha virt. eigenvalues --    0.08053   0.08427   0.08467   0.08812   0.09482
 Alpha virt. eigenvalues --    0.09716   0.10663   0.10919   0.13673   0.14462
 Alpha virt. eigenvalues --    0.15124   0.15490   0.16330   0.17491   0.18150
 Alpha virt. eigenvalues --    0.18954   0.19142   0.19184   0.19282   0.19668
 Alpha virt. eigenvalues --    0.19903   0.20581   0.20735   0.20885   0.21524
 Alpha virt. eigenvalues --    0.21905   0.22147   0.22794   0.23399   0.23447
 Alpha virt. eigenvalues --    0.24138   0.24644   0.25293   0.25369   0.25763
 Alpha virt. eigenvalues --    0.25957   0.26074   0.27281   0.27389   0.28033
 Alpha virt. eigenvalues --    0.28916   0.29681   0.30461   0.31349   0.31783
 Alpha virt. eigenvalues --    0.32701   0.33075   0.34350   0.34739   0.35692
 Alpha virt. eigenvalues --    0.36040   0.36534   0.37420   0.37717   0.38340
 Alpha virt. eigenvalues --    0.38682   0.39511   0.40420   0.40594   0.41230
 Alpha virt. eigenvalues --    0.41378   0.42034   0.42318   0.42631   0.43168
 Alpha virt. eigenvalues --    0.43255   0.43535   0.44096   0.44578   0.45124
 Alpha virt. eigenvalues --    0.45299   0.45746   0.46163   0.46552   0.47161
 Alpha virt. eigenvalues --    0.47289   0.47827   0.48044   0.48434   0.49185
 Alpha virt. eigenvalues --    0.49240   0.49339   0.49606   0.49861   0.50123
 Alpha virt. eigenvalues --    0.51097   0.51222   0.51549   0.51808   0.52071
 Alpha virt. eigenvalues --    0.52630   0.52844   0.53262   0.53383   0.53852
 Alpha virt. eigenvalues --    0.54137   0.54666   0.55196   0.55908   0.56375
 Alpha virt. eigenvalues --    0.56777   0.56856   0.57264   0.58483   0.59084
 Alpha virt. eigenvalues --    0.60402   0.61150   0.61480   0.62022   0.62593
 Alpha virt. eigenvalues --    0.63169   0.63655   0.64738   0.65577   0.66722
 Alpha virt. eigenvalues --    0.67163   0.68934   0.69668   0.71064   0.72959
 Alpha virt. eigenvalues --    0.73297   0.74297   0.75331   0.75905   0.76480
 Alpha virt. eigenvalues --    0.76855   0.77642   0.78282   0.78853   0.79221
 Alpha virt. eigenvalues --    0.79264   0.80144   0.80439   0.80591   0.81457
 Alpha virt. eigenvalues --    0.82082   0.83548   0.83946   0.84332   0.84796
 Alpha virt. eigenvalues --    0.85366   0.85444   0.86417   0.86881   0.87325
 Alpha virt. eigenvalues --    0.87851   0.88619   0.89078   0.89553   0.90245
 Alpha virt. eigenvalues --    0.90870   0.91475   0.91630   0.92153   0.92800
 Alpha virt. eigenvalues --    0.94138   0.94542   0.95071   0.95109   0.95810
 Alpha virt. eigenvalues --    0.96060   0.96650   0.97417   0.98513   0.98754
 Alpha virt. eigenvalues --    0.98987   0.99569   0.99712   1.00661   1.01085
 Alpha virt. eigenvalues --    1.01239   1.01609   1.01766   1.02489   1.02843
 Alpha virt. eigenvalues --    1.03775   1.04086   1.04650   1.04755   1.05044
 Alpha virt. eigenvalues --    1.05433   1.06051   1.06667   1.07665   1.08875
 Alpha virt. eigenvalues --    1.09366   1.09711   1.10351   1.10956   1.11439
 Alpha virt. eigenvalues --    1.11828   1.12416   1.13587   1.13784   1.14013
 Alpha virt. eigenvalues --    1.14732   1.15272   1.15904   1.16600   1.17346
 Alpha virt. eigenvalues --    1.17704   1.18549   1.19361   1.19521   1.19827
 Alpha virt. eigenvalues --    1.20318   1.20953   1.21615   1.22045   1.23173
 Alpha virt. eigenvalues --    1.23806   1.24412   1.24647   1.24937   1.25371
 Alpha virt. eigenvalues --    1.26228   1.26390   1.26667   1.27936   1.28745
 Alpha virt. eigenvalues --    1.29638   1.30694   1.30945   1.31493   1.31542
 Alpha virt. eigenvalues --    1.32421   1.33341   1.33726   1.34094   1.34475
 Alpha virt. eigenvalues --    1.35801   1.36038   1.36332   1.37085   1.37390
 Alpha virt. eigenvalues --    1.38191   1.38864   1.39849   1.40814   1.41646
 Alpha virt. eigenvalues --    1.42259   1.42858   1.43574   1.44140   1.44170
 Alpha virt. eigenvalues --    1.45188   1.47044   1.47412   1.47541   1.48434
 Alpha virt. eigenvalues --    1.48764   1.49356   1.50164   1.50925   1.52399
 Alpha virt. eigenvalues --    1.53250   1.53523   1.53938   1.55186   1.55954
 Alpha virt. eigenvalues --    1.56985   1.57173   1.57942   1.58548   1.59778
 Alpha virt. eigenvalues --    1.60435   1.61355   1.61571   1.61840   1.63045
 Alpha virt. eigenvalues --    1.64024   1.64953   1.65218   1.66341   1.67105
 Alpha virt. eigenvalues --    1.67259   1.67751   1.68380   1.69288   1.70216
 Alpha virt. eigenvalues --    1.70965   1.71563   1.71929   1.73435   1.73856
 Alpha virt. eigenvalues --    1.74773   1.75608   1.75892   1.77171   1.77375
 Alpha virt. eigenvalues --    1.78448   1.79135   1.80259   1.80773   1.81533
 Alpha virt. eigenvalues --    1.82367   1.83328   1.84240   1.85259   1.85870
 Alpha virt. eigenvalues --    1.87037   1.87626   1.88507   1.89183   1.89729
 Alpha virt. eigenvalues --    1.91463   1.91946   1.93242   1.93761   1.94793
 Alpha virt. eigenvalues --    1.95337   1.96223   1.96403   1.96968   1.97436
 Alpha virt. eigenvalues --    1.98195   1.99197   2.00361   2.01345   2.02248
 Alpha virt. eigenvalues --    2.02722   2.03499   2.04884   2.05743   2.06025
 Alpha virt. eigenvalues --    2.06707   2.08797   2.09172   2.09718   2.11865
 Alpha virt. eigenvalues --    2.13058   2.13448   2.14521   2.17645   2.18343
 Alpha virt. eigenvalues --    2.19358   2.21822   2.24047   2.24467   2.25823
 Alpha virt. eigenvalues --    2.27147   2.28954   2.31720   2.33890   2.34924
 Alpha virt. eigenvalues --    2.35167   2.36539   2.37967   2.38890   2.39313
 Alpha virt. eigenvalues --    2.40770   2.43879   2.44186   2.44725   2.45597
 Alpha virt. eigenvalues --    2.47600   2.48235   2.48506   2.50520   2.50612
 Alpha virt. eigenvalues --    2.51147   2.52743   2.54991   2.55370   2.55691
 Alpha virt. eigenvalues --    2.56684   2.57391   2.59042   2.59244   2.59626
 Alpha virt. eigenvalues --    2.59924   2.60949   2.61977   2.63028   2.63485
 Alpha virt. eigenvalues --    2.64096   2.65024   2.65876   2.66836   2.66951
 Alpha virt. eigenvalues --    2.67899   2.69075   2.70492   2.70609   2.71266
 Alpha virt. eigenvalues --    2.71399   2.73399   2.74243   2.75176   2.76182
 Alpha virt. eigenvalues --    2.76226   2.76988   2.77555   2.78087   2.79359
 Alpha virt. eigenvalues --    2.80068   2.80911   2.81535   2.81936   2.82246
 Alpha virt. eigenvalues --    2.83971   2.84261   2.85456   2.85795   2.85915
 Alpha virt. eigenvalues --    2.87158   2.88166   2.89060   2.89773   2.91222
 Alpha virt. eigenvalues --    2.91600   2.92451   2.92675   2.93857   2.95059
 Alpha virt. eigenvalues --    2.95580   2.96337   2.97253   2.97531   2.98357
 Alpha virt. eigenvalues --    2.99193   2.99272   2.99618   3.01435   3.02341
 Alpha virt. eigenvalues --    3.03632   3.04577   3.05726   3.07198   3.07814
 Alpha virt. eigenvalues --    3.08370   3.09391   3.10737   3.11306   3.11871
 Alpha virt. eigenvalues --    3.12630   3.12835   3.13752   3.13937   3.15466
 Alpha virt. eigenvalues --    3.16537   3.17129   3.19072   3.19821   3.21193
 Alpha virt. eigenvalues --    3.22027   3.23132   3.23572   3.24568   3.25213
 Alpha virt. eigenvalues --    3.25499   3.25870   3.27386   3.27794   3.29971
 Alpha virt. eigenvalues --    3.30457   3.30848   3.31604   3.32277   3.33245
 Alpha virt. eigenvalues --    3.36089   3.38111   3.40623   3.43641   3.45888
 Alpha virt. eigenvalues --    3.52007   3.53161   3.93743   3.98418   3.99117
 Alpha virt. eigenvalues --    4.02377   4.03761   4.08520   4.08704   4.11538
 Alpha virt. eigenvalues --    4.13299   4.14297   4.15018   4.15917   4.17296
 Alpha virt. eigenvalues --    4.18206   4.19429   4.19487   4.20244   4.20805
 Alpha virt. eigenvalues --    4.21625   4.22384   4.23936   4.25510   4.27355
 Alpha virt. eigenvalues --    4.28272   4.28812   4.29395   4.31490   4.32456
 Alpha virt. eigenvalues --    4.33039   4.33969   4.34635   4.35209   4.36329
 Alpha virt. eigenvalues --    4.37621   4.38059   4.39513   4.39862   4.40254
 Alpha virt. eigenvalues --    4.40760   4.41516   4.42058   4.42214   4.43152
 Alpha virt. eigenvalues --    4.43590   4.45204   4.46040   4.47789   4.48936
 Alpha virt. eigenvalues --    4.50565   4.51538   4.51556   4.53188   4.53677
 Alpha virt. eigenvalues --    4.54467   4.56762   4.57448   4.57534   4.59997
 Alpha virt. eigenvalues --    4.60333   4.61525   4.62967   4.64486   4.64961
 Alpha virt. eigenvalues --    4.66242   4.67787   4.67913   4.68733   4.69977
 Alpha virt. eigenvalues --    4.70360   4.70527   4.71327   4.71742   4.72106
 Alpha virt. eigenvalues --    4.73329   4.73786   4.75026   4.76716   4.77913
 Alpha virt. eigenvalues --    4.78379   4.78929   4.79986   4.80508   4.81292
 Alpha virt. eigenvalues --    4.81488   4.81555   4.83379   4.83653   4.85719
 Alpha virt. eigenvalues --    4.86418   4.87336   4.88877   4.89505   4.90672
 Alpha virt. eigenvalues --    4.92412   4.92765   4.94367   4.95697   4.96975
 Alpha virt. eigenvalues --    4.97858   4.98200   4.99106   4.99980   5.02470
 Alpha virt. eigenvalues --    5.03110   5.05143   5.06567   5.07374   5.11811
 Alpha virt. eigenvalues --    5.14199   5.15866   5.16735   5.17616   5.18858
 Alpha virt. eigenvalues --    5.21616   5.22398   5.23194   5.24163   5.24468
 Alpha virt. eigenvalues --    5.26757   5.28278   5.28465   5.29749   5.30353
 Alpha virt. eigenvalues --    5.31070   5.32613   5.33567   5.34015   5.34449
 Alpha virt. eigenvalues --    5.35709   5.36189   5.37545   5.38241   5.40014
 Alpha virt. eigenvalues --    5.41149   5.41306   5.42564   5.42716   5.43734
 Alpha virt. eigenvalues --    5.44420   5.45352   5.47022   5.48622   5.50496
 Alpha virt. eigenvalues --    5.52645   5.52719   5.54851   5.55531   5.56609
 Alpha virt. eigenvalues --    5.57749   5.59169   5.61855   5.65756   5.66490
 Alpha virt. eigenvalues --    5.70993   5.74376   5.76748   5.78625   5.80825
 Alpha virt. eigenvalues --    5.82667   5.85597   5.87518   5.89942   5.92121
 Alpha virt. eigenvalues --    5.93585   5.97145   5.99823   6.00404   6.02022
 Alpha virt. eigenvalues --    6.03322   6.04095   6.05811   6.42789   6.44822
 Alpha virt. eigenvalues --    6.46402   6.50550   6.52799   6.61485   6.62536
 Alpha virt. eigenvalues --    6.63018   6.64268   6.64914   6.65253   6.66043
 Alpha virt. eigenvalues --    6.68308   6.68548   6.75310   6.77133   6.77844
 Alpha virt. eigenvalues --    6.78967   6.91623   6.93509   6.94487   6.96560
 Alpha virt. eigenvalues --    6.98970   7.00148   7.01019   7.01775   7.03287
 Alpha virt. eigenvalues --    7.03406   7.05165   7.05800   7.07378   7.11575
 Alpha virt. eigenvalues --    7.13113   7.15952   7.17776   7.18332   7.22058
 Alpha virt. eigenvalues --    7.22247   7.23783   7.24296   7.25702   7.26649
 Alpha virt. eigenvalues --    7.28528   7.29441   7.31214   7.33175   7.34779
 Alpha virt. eigenvalues --    7.36490   7.37143   7.37952   7.39454   7.40079
 Alpha virt. eigenvalues --    7.40773   7.41218   7.42150   7.43078   7.45776
 Alpha virt. eigenvalues --    7.46183   7.46920   7.49564   7.50145   7.51618
 Alpha virt. eigenvalues --    7.52578   7.53881   7.54818   7.55121   7.56425
 Alpha virt. eigenvalues --    7.57020   7.57603   7.58193   7.58944   7.59282
 Alpha virt. eigenvalues --    7.59500   7.60953   7.62119   7.62553   7.63265
 Alpha virt. eigenvalues --    7.66357   7.66750   7.67477   7.68170   7.68891
 Alpha virt. eigenvalues --    7.70514   7.70571   7.73883   7.77032   7.78641
 Alpha virt. eigenvalues --    7.80660   7.81599   7.85510   7.88686   7.91052
 Alpha virt. eigenvalues --    7.96446   7.99901   8.02336   8.02923   8.04282
 Alpha virt. eigenvalues --    8.04905   8.04987   8.06760   8.07352   8.10148
 Alpha virt. eigenvalues --    8.11065   8.12630   8.13642   8.14078   8.14476
 Alpha virt. eigenvalues --    8.15485   8.16221   8.16481   8.19424   8.21411
 Alpha virt. eigenvalues --    8.23864   8.30664   8.32256   8.32712   8.34271
 Alpha virt. eigenvalues --    8.99394   9.03207   9.05576   9.06296   9.06964
 Alpha virt. eigenvalues --    9.07818   9.09747   9.10110   9.12257  16.45760
 Alpha virt. eigenvalues --   16.90793  17.17114  17.38253  17.49658  18.01493
 Alpha virt. eigenvalues --   18.16712  18.38766  18.74267
          Condensed to atoms (all electrons):
               1          2          3          4          5          6
     1  H    0.393031  -0.022729   0.021264   0.020444   0.004698   0.004732
     2  O   -0.022729   8.609537   0.142904   0.154543  -0.065747  -0.072812
     3  H    0.021264   0.142904   0.401369   0.070996  -0.045043   0.021551
     4  H    0.020444   0.154543   0.070996   0.396787   0.018715  -0.046057
     5  O    0.004698  -0.065747  -0.045043   0.018715   8.533601   0.004946
     6  O    0.004732  -0.072812   0.021551  -0.046057   0.004946   8.528285
     7  O    0.173998  -0.121873   0.006796   0.006455  -0.005173  -0.003823
     8  H    0.000790   0.002612  -0.002322   0.003138  -0.037836   0.015259
     9  H    0.000504   0.007707   0.007309  -0.001557   0.134146   0.000378
    10  H   -0.000702   0.002738  -0.008751  -0.001688   0.265734  -0.000641
    11  H   -0.000439   0.003388  -0.001860  -0.009039  -0.000623   0.265303
    12  H    0.000623   0.002011   0.002840  -0.002010   0.016786  -0.043853
    13  H    0.001794   0.009624  -0.002730   0.007464   0.000272   0.133911
    14  H   -0.000911  -0.012887  -0.000314  -0.000491   0.000778   0.000537
    15  H    0.005042   0.004538   0.001220   0.003924   0.001226   0.012293
    16  H    0.005249   0.004461   0.003617   0.001047   0.009472   0.001035
    17  O    0.008914   0.002078  -0.000430   0.003581   0.004966  -0.124546
    18  H   -0.000022  -0.000034  -0.000162  -0.000130  -0.001090  -0.000415
    19  H   -0.000355  -0.000126   0.002023  -0.001185   0.005806  -0.000046
    20  O    0.011013   0.002929   0.002030  -0.000281  -0.118709   0.003311
    21  H   -0.000742  -0.000281  -0.001039   0.002122  -0.000569   0.007251
    22  O   -0.001322   0.000346   0.000351   0.000081   0.000558   0.002319
    23  O    0.001664   0.000844   0.003854   0.003379  -0.078909  -0.074283
    24  H    0.000037  -0.000040   0.000000  -0.000025   0.000035  -0.000071
    25  O   -0.000071   0.000426   0.000206  -0.000024  -0.000069  -0.003328
    26  H   -0.000306   0.000959  -0.000026   0.000572   0.004274   0.006575
    27  H    0.000006   0.000002  -0.000071   0.000063  -0.000333  -0.000024
               7          8          9         10         11         12
     1  H    0.173998   0.000790   0.000504  -0.000702  -0.000439   0.000623
     2  O   -0.121873   0.002612   0.007707   0.002738   0.003388   0.002011
     3  H    0.006796  -0.002322   0.007309  -0.008751  -0.001860   0.002840
     4  H    0.006455   0.003138  -0.001557  -0.001688  -0.009039  -0.002010
     5  O   -0.005173  -0.037836   0.134146   0.265734  -0.000623   0.016786
     6  O   -0.003823   0.015259   0.000378  -0.000641   0.265303  -0.043853
     7  O    8.465856   0.000707   0.007873   0.001338   0.000768   0.001116
     8  H    0.000707   0.417823   0.011252  -0.012673  -0.000946   0.074411
     9  H    0.007873   0.011252   0.398290   0.000009  -0.000023   0.000286
    10  H    0.001338  -0.012673   0.000009   0.597682   0.000111  -0.001089
    11  H    0.000768  -0.000946  -0.000023   0.000111   0.599914  -0.012968
    12  H    0.001116   0.074411   0.000286  -0.001089  -0.012968   0.404836
    13  H    0.005629   0.000730  -0.000728  -0.000042  -0.000103   0.011754
    14  H    0.246367   0.000014  -0.000282  -0.000212  -0.000175   0.000003
    15  H   -0.034747  -0.000682   0.001455   0.000133  -0.000637   0.001213
    16  H   -0.036180   0.001600   0.015406  -0.000130   0.000141  -0.001268
    17  O   -0.073275  -0.001608   0.000580  -0.000254  -0.010542   0.009088
    18  H   -0.000474   0.001050   0.000282   0.000171   0.000072   0.001408
    19  H    0.018023   0.001647   0.020546  -0.001295  -0.000128   0.000249
    20  O   -0.076723   0.007807  -0.020960  -0.009691  -0.000156  -0.000701
    21  H    0.019240   0.000006   0.001380  -0.000166  -0.001146   0.002430
    22  O    0.003770   0.000354   0.009316   0.000428   0.000584  -0.001804
    23  O    0.002432   0.116671   0.008225   0.001854   0.001858   0.143430
    24  H    0.000095   0.000345  -0.000089  -0.000061  -0.000080   0.000335
    25  O    0.000129   0.003868   0.000409   0.000597   0.000228   0.001670
    26  H   -0.000049   0.015229  -0.000566   0.000665   0.000682   0.007683
    27  H   -0.000022  -0.000859  -0.000686  -0.000095   0.000010  -0.002135
              13         14         15         16         17         18
     1  H    0.001794  -0.000911   0.005042   0.005249   0.008914  -0.000022
     2  O    0.009624  -0.012887   0.004538   0.004461   0.002078  -0.000034
     3  H   -0.002730  -0.000314   0.001220   0.003617  -0.000430  -0.000162
     4  H    0.007464  -0.000491   0.003924   0.001047   0.003581  -0.000130
     5  O    0.000272   0.000778   0.001226   0.009472   0.004966  -0.001090
     6  O    0.133911   0.000537   0.012293   0.001035  -0.124546  -0.000415
     7  O    0.005629   0.246367  -0.034747  -0.036180  -0.073275  -0.000474
     8  H    0.000730   0.000014  -0.000682   0.001600  -0.001608   0.001050
     9  H   -0.000728  -0.000282   0.001455   0.015406   0.000580   0.000282
    10  H   -0.000042  -0.000212   0.000133  -0.000130  -0.000254   0.000171
    11  H   -0.000103  -0.000175  -0.000637   0.000141  -0.010542   0.000072
    12  H    0.011754   0.000003   0.001213  -0.001268   0.009088   0.001408
    13  H    0.409222   0.000008   0.008191   0.000956  -0.019354   0.000482
    14  H    0.000008   0.625363  -0.011826  -0.011921   0.003142   0.000009
    15  H    0.008191  -0.011826   0.401434  -0.001039   0.150660  -0.000002
    16  H    0.000956  -0.011921  -0.001039   0.417472  -0.002450   0.000906
    17  O   -0.019354   0.003142   0.150660  -0.002450   8.629789   0.002758
    18  H    0.000482   0.000009  -0.000002   0.000906   0.002758   0.375321
    19  H    0.001457  -0.001175   0.004460   0.069049  -0.000283   0.012101
    20  O    0.001946   0.003312  -0.002760   0.122419   0.006241   0.006745
    21  H    0.020930  -0.001104   0.067777   0.004913   0.142426   0.009661
    22  O    0.008213  -0.000020   0.009210   0.015995  -0.051826   0.200381
    23  O    0.007257   0.000044  -0.000683  -0.000148   0.000468   0.000778
    24  H   -0.000353  -0.000001  -0.002426  -0.002041   0.002168  -0.007685
    25  O    0.000591  -0.000003  -0.000343  -0.000625  -0.002708   0.021895
    26  H    0.000880  -0.000085  -0.000205   0.000389   0.000084   0.014194
    27  H    0.000152   0.000003  -0.000028   0.000010  -0.000024   0.001060
              19         20         21         22         23         24
     1  H   -0.000355   0.011013  -0.000742  -0.001322   0.001664   0.000037
     2  O   -0.000126   0.002929  -0.000281   0.000346   0.000844  -0.000040
     3  H    0.002023   0.002030  -0.001039   0.000351   0.003854   0.000000
     4  H   -0.001185  -0.000281   0.002122   0.000081   0.003379  -0.000025
     5  O    0.005806  -0.118709  -0.000569   0.000558  -0.078909   0.000035
     6  O   -0.000046   0.003311   0.007251   0.002319  -0.074283  -0.000071
     7  O    0.018023  -0.076723   0.019240   0.003770   0.002432   0.000095
     8  H    0.001647   0.007807   0.000006   0.000354   0.116671   0.000345
     9  H    0.020546  -0.020960   0.001380   0.009316   0.008225  -0.000089
    10  H   -0.001295  -0.009691  -0.000166   0.000428   0.001854  -0.000061
    11  H   -0.000128  -0.000156  -0.001146   0.000584   0.001858  -0.000080
    12  H    0.000249  -0.000701   0.002430  -0.001804   0.143430   0.000335
    13  H    0.001457   0.001946   0.020930   0.008213   0.007257  -0.000353
    14  H   -0.001175   0.003312  -0.001104  -0.000020   0.000044  -0.000001
    15  H    0.004460  -0.002760   0.067777   0.009210  -0.000683  -0.002426
    16  H    0.069049   0.122419   0.004913   0.015995  -0.000148  -0.002041
    17  O   -0.000283   0.006241   0.142426  -0.051826   0.000468   0.002168
    18  H    0.012101   0.006745   0.009661   0.200381   0.000778  -0.007685
    19  H    0.408796   0.147975  -0.006364  -0.045631   0.001120  -0.012343
    20  O    0.147975   8.652359   0.001628  -0.072120   0.000353   0.001977
    21  H   -0.006364   0.001628   0.393999  -0.031063   0.000731  -0.014922
    22  O   -0.045631  -0.072120  -0.031063   8.340697  -0.000658   0.325252
    23  O    0.001120   0.000353   0.000731  -0.000658   8.665230   0.000160
    24  H   -0.012343   0.001977  -0.014922   0.325252   0.000160   0.545658
    25  O    0.005615  -0.001107   0.003979  -0.086267  -0.089617  -0.007018
    26  H    0.000699  -0.002572  -0.001238   0.001710  -0.021534  -0.001386
    27  H   -0.000401   0.000313   0.000014   0.001437  -0.000627  -0.000572
              25         26         27
     1  H   -0.000071  -0.000306   0.000006
     2  O    0.000426   0.000959   0.000002
     3  H    0.000206  -0.000026  -0.000071
     4  H   -0.000024   0.000572   0.000063
     5  O   -0.000069   0.004274  -0.000333
     6  O   -0.003328   0.006575  -0.000024
     7  O    0.000129  -0.000049  -0.000022
     8  H    0.003868   0.015229  -0.000859
     9  H    0.000409  -0.000566  -0.000686
    10  H    0.000597   0.000665  -0.000095
    11  H    0.000228   0.000682   0.000010
    12  H    0.001670   0.007683  -0.002135
    13  H    0.000591   0.000880   0.000152
    14  H   -0.000003  -0.000085   0.000003
    15  H   -0.000343  -0.000205  -0.000028
    16  H   -0.000625   0.000389   0.000010
    17  O   -0.002708   0.000084  -0.000024
    18  H    0.021895   0.014194   0.001060
    19  H    0.005615   0.000699  -0.000401
    20  O   -0.001107  -0.002572   0.000313
    21  H    0.003979  -0.001238   0.000014
    22  O   -0.086267   0.001710   0.001437
    23  O   -0.089617  -0.021534  -0.000627
    24  H   -0.007018  -0.001386  -0.000572
    25  O    8.181149   0.202329   0.266325
    26  H    0.202329   0.400118   0.040167
    27  H    0.266325   0.040167   0.521050
 Mulliken charges:
               1
     1  H    0.373797
     2  O   -0.655117
     3  H    0.374418
     4  H    0.369177
     5  O   -0.651912
     6  O   -0.637785
     7  O   -0.608254
     8  H    0.381612
     9  H    0.399539
    10  H    0.166028
    11  H    0.165808
    12  H    0.383656
    13  H    0.391849
    14  H    0.161827
    15  H    0.382602
    16  H    0.381668
    17  O   -0.679642
    18  H    0.360742
    19  H    0.369768
    20  O   -0.666580
    21  H    0.380146
    22  O   -0.630293
    23  O   -0.693892
    24  H    0.173050
    25  O   -0.498235
    26  H    0.330757
    27  H    0.175265
[...]
 03249,-0.00264759,0.00121438,-0.00152030,0.00221172,-0.12177890,-0.420
 69072,-0.10479269,-0.00080106,0.00254420,-0.00089445,0.00119461,0.0013
 5612,-0.00163817,0.16557407,-0.17550040,0.14029813,-0.04834335,0.61992
 440,0.00016680,0.00088794,-0.00041862,0.00058894,-0.00092818,-0.000021
 81,-0.00057547,0.00063326,-0.00007510,-0.00028752,0.00025532,0.0002497
 2,0.00809360,0.00051568,0.00511192,0.00037500,-0.00020448,-0.00045323,
 -0.00116997,-0.00457064,0.00366945,-0.00070032,-0.00028197,0.00031156,
 -0.00390562,0.00059854,-0.01115639,0.00221462,-0.00009759,-0.00159764,
 -0.00004911,0.00002827,0.00008944,-0.00021280,0.00007936,0.00040446,-0
 .00042059,0.00020648,0.00069579,0.00045044,-0.00089097,-0.00157688,0.0
 0060581,0.00126442,-0.00011689,-0.04136436,-0.07122079,-0.04463173,-0.
 00112561,-0.00106362,-0.00097615,-0.00117458,-0.00093408,0.00038428,-0
 .15954685,0.10720458,-0.14266528,0.20184448,-0.03830240,0.19625924,0.0
 0007365,0.00032661,-0.00002086,0.00022453,-0.00031298,-0.00002345,-0.0
 0021756,0.00008668,-0.00004571,-0.00008199,0.00021310,0.00009733,0.000
 25016,0.00002187,0.00015946,-0.00201992,-0.00151057,0.00054972,-0.0002
 4704,-0.00028837,0.00004374,-0.00035296,-0.00004058,-0.00014611,-0.000
 27843,-0.00005552,-0.00025299,-0.00004563,-0.00003311,-0.00000299,0.00
 002982,-0.00016245,0.00012030,-0.00059158,0.00009967,0.00041847,0.0012
 4653,0.00498747,0.00065023,0.00016163,-0.00008025,-0.00012993,-0.00150
 153,0.00657701,0.00414575,0.00016613,0.00035835,-0.00072719,-0.0286033
 4,0.07322656,0.03242820,0.00168056,-0.00100589,-0.00246530,0.00102138,
 -0.00110297,-0.00074925,-0.00049181,0.00040105,0.00114749,0.03788937,0
 .00087257,0.00001882,0.00015144,-0.00103782,-0.00020369,-0.00039750,0.
 00026387,0.00057726,0.00039698,0.00070989,-0.00015806,0.00032084,0.000
 28053,-0.00064738,-0.00019276,-0.00560896,-0.00131851,0.00255387,-0.00
 095660,0.00055349,-0.00141059,-0.00016149,0.00026303,-0.00003910,-0.00
 049263,0.00034460,0.00018408,-0.00003153,0.00006393,-0.00002597,-0.000
 05301,0.00014095,-0.00018483,0.00043131,0.00136015,0.00063580,0.007580
 38,0.00183510,-0.00467364,-0.00024949,0.00004940,0.00003327,0.00574655
 ,-0.02600999,-0.01700272,0.00052643,0.00130783,0.00125298,0.07515342,-
 0.36155986,-0.14011540,-0.00440211,-0.00487771,0.00158495,-0.00234394,
 0.00306782,-0.00226943,0.00115519,-0.00268911,0.00020882,-0.08172317,0
 .38409502,0.00040612,-0.00001800,0.00038366,-0.00034705,-0.00012368,-0
 .00037939,0.00004661,0.00030611,0.00026302,0.00035310,-0.00010056,0.00
 025039,0.00062048,-0.00017807,-0.00043010,-0.00015090,0.00087842,0.000
 37882,-0.00099399,0.00015495,-0.00271299,-0.00003317,-0.00002518,0.000
 32971,-0.00112551,0.00004645,0.00034740,-0.00003955,0.00000963,-0.0000
 2875,-0.00010371,-0.00012665,0.00000222,0.00054735,0.00032190,0.000234
 14,0.00036866,-0.00307086,-0.00171304,-0.00005338,-0.00006129,-0.00010
 148,-0.00730633,0.03331965,0.01386232,-0.00039306,0.00144921,-0.000082
 46,0.04520809,-0.19069061,-0.13855944,-0.00297838,-0.00003691,0.003999
 51,-0.00164216,-0.00006095,-0.00216741,0.00154285,-0.00094679,0.000810
 88,-0.03718851,0.15469482,0.13119701,-0.00038578,-0.00028414,0.0000457
 7,0.00021165,0.00042463,0.00016203,0.00003808,-0.00045396,-0.00022192,
 -0.00008143,-0.00011911,-0.00013311,-0.00072930,0.00048394,0.00004017,
 0.00084158,0.00056215,-0.00005569,0.00079148,0.00055673,0.00038484,0.0
 0046087,-0.00019209,0.00014985,0.00111802,-0.00027085,-0.00009160,0.00
 012813,-0.00001776,0.00006785,-0.00000444,-0.00001396,-0.00002606,-0.0
 0015855,-0.00072697,-0.00059910,-0.00109399,-0.00039465,0.00041993,-0.
 00014958,0.00003542,0.00007889,-0.00055699,0.00036245,-0.00023533,-0.0
 0150586,-0.00077395,-0.00108712,0.00498795,0.00173216,0.00045850,-0.14
 102986,-0.14422916,0.10409579,-0.00525403,-0.00385519,0.00370213,-0.00
 150271,0.00669581,-0.00622145,-0.00868574,-0.00005276,0.00112701,0.586
 25669,-0.00094950,-0.00005233,0.00026455,0.00089409,0.00018179,-0.0001
 4733,-0.00028663,-0.00030927,-0.00006257,-0.00036938,-0.00003765,0.000
 03068,0.00120653,0.00092253,-0.00087374,0.00239960,0.00092546,-0.00107
 952,0.00081010,-0.00067194,0.00056986,0.00008284,-0.00045959,0.0007930
 4,-0.00213151,-0.00068495,0.00082580,-0.00001946,-0.00017577,0.0000070
 8,-0.00001671,-0.00009992,0.00016983,-0.00070040,-0.00110410,-0.000496
 54,-0.00345101,-0.00045616,0.00219705,0.00011653,0.00006442,-0.0000546
 4,-0.00061125,0.00096081,-0.00175127,-0.00031766,0.00069834,-0.0001656
 1,0.00434055,-0.01109373,-0.00731355,-0.09604773,-0.22576949,0.1184772
 6,-0.00274004,-0.00283119,-0.00089065,0.00706910,-0.00190672,0.0050138
 4,-0.00306054,0.00216174,0.00271043,-0.04970771,0.36954588,0.00022530,
 0.00000056,-0.00060646,0.00005072,0.00003165,0.00085779,0.00002360,-0.
 00033943,-0.00048246,-0.00038306,0.00029786,-0.00060204,-0.00181343,-0
 .00023417,0.00153883,0.00111285,-0.00051947,-0.00013041,0.00032081,0.0
 0057310,0.00174945,-0.00024906,0.00033975,-0.00124119,0.00315550,0.000
 37267,-0.00144511,0.00011139,0.00002200,0.00003416,-0.00006396,0.00013
 641,0.00010268,-0.00032363,0.00007893,-0.00002177,-0.00146285,0.000359
 52,0.00068821,0.00006074,-0.00001344,0.00003291,-0.00017527,-0.0001923
 5,-0.00270839,-0.00096085,-0.00183452,-0.00148901,0.00134798,-0.007973
 79,0.00116781,0.08508934,0.13653875,-0.10324595,0.00501119,-0.00416061
 ,-0.00396448,-0.00754496,0.00677576,-0.00115106,-0.00037264,0.00584081
 ,-0.00448446,-0.19417216,-0.11558062,0.14876279,-0.00093401,-0.0000459
 3,0.00021391,0.00177968,0.00048232,0.00032301,-0.00095817,-0.00106705,
 0.00001794,-0.00137059,0.00014516,-0.00077411,0.00455819,0.00231019,-0
 .00450043,0.00140668,-0.00569680,-0.00361990,0.00071530,-0.00025842,0.
 00018488,-0.04969434,0.05197161,-0.11919586,-0.00359273,0.00058423,-0.
 00074794,0.00027710,-0.00014799,0.00048817,-0.00057159,-0.00101001,0.0
 0074027,-0.05894955,-0.11465197,-0.07572546,0.00052594,0.00155112,0.00
 043170,0.00000363,-0.00000881,-0.00002651,-0.00024715,0.00058431,-0.00
 054267,-0.00010502,0.00022095,-0.00010043,-0.00038659,-0.00128492,0.00
 018671,0.00270409,0.00160433,-0.00203090,-0.00026828,0.00078961,-0.001
 16165,0.00172047,-0.00065295,0.00063935,0.00064310,0.00082150,-0.00008
 913,-0.00134699,-0.00158607,0.00155159,0.12318621,0.00114162,0.0003206
 9,-0.00078438,-0.00024271,-0.00105903,0.00141007,-0.00025952,0.0003406
 4,-0.00113688,-0.00019276,0.00151276,-0.00083581,0.00165490,0.00279643
 ,0.00548017,-0.00650388,-0.00753328,-0.00693689,-0.00077940,0.00001103
 ,0.00066034,0.03293218,-0.10866410,0.11404971,0.00155571,-0.00050476,-
 0.00014285,-0.00084948,-0.00137008,0.00128314,-0.00151496,-0.00214694,
 0.00143107,-0.09743637,-0.32223690,-0.14325384,0.00323923,-0.00080614,
 -0.00234250,0.00006625,0.00006996,-0.00007357,0.00029896,0.00009374,-0
 .00017547,0.00017248,-0.00032789,-0.00035026,-0.00216991,0.00086992,0.
 00119788,-0.00285728,-0.00345034,0.00221043,0.00051966,-0.00094505,0.0
 0041547,-0.00114064,0.00088648,0.00035702,0.00041640,-0.00150669,-0.00
 046805,0.00128692,0.00288372,-0.00113456,0.05800306,0.44940944,-0.0001
 6668,-0.00023988,-0.00033892,0.00056271,0.00105595,0.00227019,-0.00021
 089,-0.00238565,-0.00149855,-0.00071221,0.00067987,-0.00224347,-0.0027
 7140,0.00612881,-0.01187887,-0.00494939,-0.00823451,0.00120238,0.00034
 365,0.00040612,0.00063861,-0.11161234,0.16147065,-0.37297390,-0.003842
 15,-0.00054981,0.00114593,0.00162456,0.00189910,-0.00069412,0.00004509
 ,0.00025985,0.00091450,-0.08257687,-0.19162653,-0.14816851,0.00258533,
 -0.00068651,-0.00267931,-0.00005104,-0.00003853,-0.00002815,-0.0002560
 3,0.00016202,-0.00048793,-0.00026672,-0.00082055,-0.00022468,-0.000936
 01,0.00035513,0.00158811,-0.00061016,0.00019232,-0.00035422,-0.0008044
 8,0.00027456,-0.00018479,0.00226130,0.00055526,-0.00056352,-0.00020735
 ,-0.00060885,-0.00051416,0.00059570,0.00010076,0.00068183,0.20065366,0
 .03416044,0.54213608,0.00001403,0.00004518,-0.00001930,0.00002390,-0.0
 0007790,-0.00000790,-0.00002017,0.00006492,0.00002575,-0.00003234,0.00
 003982,-0.00000274,0.00014017,-0.00008560,-0.00003205,0.00009595,-0.00
 009097,-0.00007776,-0.00007771,-0.00015086,0.00005892,-0.00004156,0.00
 002315,-0.00002579,-0.00018037,0.00003307,0.00005005,-0.00003091,0.000
 02260,-0.00000741,-0.00000530,0.00001531,0.00002422,-0.00001875,0.0000
 6197,0.00006035,-0.00014301,0.00007514,0.00011933,0.00005843,-0.000002
 61,-0.00001216,0.00007127,0.00007498,-0.00009340,0.00003853,0.00015922
 ,-0.00009565,-0.00004664,-0.00196700,-0.00086722,-0.02058109,0.0186067
 9,0.00045615,-0.00173876,0.00121150,-0.00014452,0.00079625,-0.00064119
 ,0.00022624,0.00036930,0.00267050,0.00119295,-0.42336843,0.16042544,0.
 09761963,0.00020058,-0.00019422,-0.00004163,0.44415404,0.00011403,0.00
 007578,-0.00005818,-0.00006964,-0.00005481,0.00000568,0.00000287,0.000
 04471,0.00002642,0.00000915,0.00000893,0.00001243,0.00000136,-0.000038
 68,-0.00000928,-0.00012551,-0.00003474,0.00003333,-0.00022845,-0.00008
 564,0.00004178,-0.00000493,-0.00000655,0.00000085,-0.00002531,0.000001
 77,-0.00000306,-0.00000459,0.00001196,-0.00000055,0.00000717,-0.000002
 08,-0.00000402,0.00001690,0.00003902,0.00004546,0.00015677,0.00003435,
 -0.00005702,0.00006306,-0.00002577,-0.00001071,0.00024690,0.00003333,-
 0.00007849,0.00022267,0.00021507,-0.00010547,-0.00133800,-0.00126458,-
 0.00077011,-0.02759726,0.01280347,0.00532742,0.00036770,-0.00031120,-0
 .00159283,-0.00002256,-0.00018151,0.00097259,0.00325334,0.00095492,0.0
 0100843,0.20529075,-0.12221728,-0.03272898,0.00002773,-0.00003661,-0.0
 0003558,-0.17925715,0.11301434,-0.00002435,-0.00004166,0.00003545,-0.0
 0002746,0.00003124,-0.00005866,0.00002400,0.00000004,0.00001735,0.0000
 4294,-0.00003071,0.00005137,-0.00005979,-0.00000032,-0.00005325,-0.000
 13316,0.00004494,-0.00001011,0.00006480,0.00009655,-0.00013111,0.00004
 826,-0.00000926,0.00004514,0.00011236,-0.00002470,0.00004418,0.0000036
 4,0.00002022,0.00001456,0.00002792,-0.00003572,-0.00000200,0.00000668,
 0.00001972,0.00002931,0.00014468,0.00000330,-0.00003300,-0.00003845,0.
 00001593,0.00003798,-0.00008726,-0.00020926,0.00011630,-0.00018605,0.0
 0000289,-0.00003907,-0.00064038,-0.00051112,-0.00038834,0.01840981,-0.
 01241161,-0.00285189,-0.00026957,-0.00127102,0.00393099,-0.00075349,0.
 00141934,-0.00235554,0.00206635,0.00016666,0.00022416,0.07981795,-0.01
 521753,-0.02950447,-0.00008465,0.00006934,-0.00003047,-0.09856102,0.02
 641146,0.03134235,-0.00091655,-0.00019693,0.00045202,0.00066416,0.0006
 3595,-0.00038933,-0.00016711,-0.00058343,0.00014494,-0.00017476,-0.000
 45954,0.00016774,0.00082000,0.00123672,-0.00211746,0.00195271,0.001683
 76,0.00018811,0.00071957,-0.00018942,-0.00019134,-0.00015878,0.0000840
 9,0.00471057,-0.00210633,-0.00036034,0.00079411,0.00012695,-0.00002443
 ,0.00005197,0.00003045,0.00006117,-0.00009844,-0.00509264,-0.00144874,
 -0.00262069,-0.00187119,0.00000736,0.00109406,-0.00003722,-0.00001186,
 0.00001779,-0.00033462,0.00031743,-0.00018101,-0.00017874,0.00032675,0
 .00010764,0.00165123,-0.00151504,-0.00112819,0.00011564,0.00957517,-0.
 00121565,-0.00221725,0.00144088,-0.00145812,0.00238146,-0.00088729,0.0
 0025145,-0.00081838,0.00242258,0.00135718,-0.00979116,-0.01712376,0.01
 103129,-0.01255625,0.02163224,0.00251919,0.00066683,-0.00068116,0.0000
 3500,0.41581673,0.00016740,0.00015950,-0.00014794,0.00007091,-0.000454
 20,0.00020142,-0.00009685,0.00030938,-0.00013578,-0.00010576,0.0003832
 5,-0.00013021,0.00037862,-0.00031432,0.00111581,-0.00025200,-0.0010769
 9,-0.00051655,-0.00013181,-0.00033406,0.00023399,0.00013956,-0.0001307
 9,-0.00334997,-0.00004747,0.00006506,-0.00027274,-0.00015144,-0.000207
 47,0.00001234,-0.00008904,-0.00002538,0.00021150,0.00131208,0.00193001
 ,0.00166978,0.00011607,0.00038046,0.00007633,0.00007036,0.00005519,-0.
 00005112,-0.00002751,0.00032767,-0.00022368,0.00005497,0.00030338,-0.0
 0007903,-0.00031608,-0.00090558,-0.00014395,0.00987304,-0.00628005,-0.
 00515359,-0.00053132,0.00049968,-0.00105932,0.00021749,-0.00044317,0.0
 0082473,0.00032801,0.00113309,0.00036617,-0.01491531,-0.00569875,0.010
 90273,0.01855746,-0.01219956,-0.00130705,-0.00143975,-0.00304920,0.001
 68665,-0.01698536,0.61467676,0.00036181,0.00000308,-0.00026483,-0.0002
 0905,-0.00000429,0.00050489,0.00005284,-0.00015548,-0.00029131,-0.0000
 3988,0.00019838,-0.00035989,-0.00072925,0.00033377,0.00095999,-0.00048
 952,-0.00080393,0.00056837,-0.00018338,0.00035073,0.00028939,0.0014095
 2,-0.00140907,-0.00233744,0.00108217,-0.00042205,-0.00017095,0.0001449
 5,-0.00016200,0.00009051,-0.00001895,0.00024714,-0.00004111,-0.0005426
 6,0.00089273,0.00023425,0.00088503,0.00027320,-0.00075580,-0.00001798,
 -0.00002223,0.00000472,0.00003130,-0.00016362,-0.00004876,0.00003342,-
 0.00059403,-0.00021933,-0.00072747,0.00086277,0.00114933,-0.00353467,-
 0.00495202,-0.00967004,0.00062025,-0.00144414,0.00093846,-0.00087640,0
 .00126241,-0.00025998,0.00050084,-0.00151252,-0.00146362,0.00984166,0.
 01017282,-0.00162415,0.00454267,-0.00335975,0.00686756,-0.00017066,0.0
 0134802,-0.00028394,-0.01111430,0.15677159,0.07122828,0.00093849,0.000
 22194,-0.00047279,-0.00065855,-0.00078224,0.00044017,0.00014034,0.0006
 8160,-0.00026343,0.00020526,0.00061122,-0.00014118,-0.00066972,-0.0011
 7149,0.00279074,-0.00234788,-0.00199068,-0.00065642,-0.00071424,0.0001
 0520,0.00022389,-0.00061993,-0.00007518,-0.00618117,0.00210484,0.00008
 525,-0.00070654,-0.00014889,-0.00014982,0.00001967,-0.00007783,-0.0002
 1487,0.00014047,0.00684680,0.00148075,0.00407717,0.00182806,-0.0003213
 1,-0.00103107,0.00004149,0.00003393,-0.00002914,0.00033914,-0.00019448
 ,0.00017695,0.00016261,-0.00021474,-0.00016143,-0.00130869,0.00116484,
 0.00054149,-0.00693276,-0.00256592,0.00352180,0.00086985,-0.00117881,0
 .00087875,-0.00166716,0.00077582,0.00007499,0.00014671,-0.00167196,-0.
 00030735,0.00246421,0.00272460,-0.00167700,-0.00302532,-0.00981506,-0.
 00073025,-0.00018564,0.00014978,-0.00010296,-0.29082026,0.17684738,0.0
 4550955,0.28001492,-0.00076443,-0.00025310,0.00045320,0.00034720,0.000
 75089,-0.00052202,-0.00000736,-0.00053342,0.00029338,0.00000651,-0.000
 63792,0.00027806,0.00024701,0.00074188,-0.00247580,0.00139382,0.002131
 59,0.00058359,0.00058174,0.00005024,-0.00036023,0.00090019,-0.00067130
 ,0.00590154,-0.00144394,-0.00009704,0.00079578,0.00015363,0.00030630,-
 0.00006810,0.00007444,0.00012777,-0.00027309,0.00039662,-0.00555919,-0
 .00348125,-0.00158080,-0.00050765,0.00067844,-0.00006921,-0.00004370,0
 .00004632,-0.00020443,-0.00004186,0.00007500,-0.00017434,0.00011039,0.
 00020813,0.00156193,-0.00042134,-0.00074922,0.00271540,0.00962697,-0.0
 0386474,-0.00107113,0.00097901,-0.00038305,0.00148947,-0.00058501,-0.0
 0044019,-0.00090938,0.00120612,0.00072228,-0.00206081,-0.00634621,0.00
 270605,-0.01250520,0.00296599,-0.00181974,0.00045586,0.00023491,-0.000
 35962,0.12413537,-0.15171994,-0.03162487,-0.14642750,0.17016298,-0.000
 15940,0.00000839,0.00014447,0.00005477,-0.00000669,-0.00036753,-0.0000
 0820,0.00013241,0.00023527,0.00006954,-0.00016692,0.00028237,0.0004452
 2,-0.00041392,-0.00071938,0.00011711,0.00075333,-0.00038901,0.00005551
 ,-0.00014973,-0.00018728,-0.00452959,0.00419262,0.00317444,-0.00044824
 ,0.00045614,-0.00020313,-0.00007856,0.00011912,-0.00013062,0.00000548,
 -0.00023291,-0.00002387,0.00290254,-0.00220749,-0.00000326,-0.00051087
 ,-0.00023846,0.00046379,0.00000645,0.00000254,0.00000058,0.00003877,0.
 00000844,0.00007621,0.00000144,0.00030524,0.00013820,0.00022958,-0.000
 17721,-0.00046807,0.00399676,-0.00152923,-0.00037037,0.00028034,0.0004
 6540,-0.00034470,0.00004548,-0.00060643,0.00017929,0.00002056,0.000454
 80,0.00037382,-0.00094791,0.00074558,-0.00015960,-0.00132048,-0.001745
 86,-0.01475228,-0.00014992,-0.00027524,0.00000106,0.03060986,-0.031839
 73,-0.02411456,-0.04038731,0.03895157,0.03938208,0.00002402,0.00001368
 ,-0.00001129,-0.00001867,-0.00003267,-0.00001942,0.00001033,0.00004459
 ,0.00003437,0.00000109,-0.00000034,0.00000702,-0.00006760,-0.00017381,
 -0.00000222,-0.00000468,-0.00003718,-0.00002772,-0.00002120,-0.0000302
 5,0.00001998,-0.00012242,0.00029676,0.00022677,0.00010442,0.00003399,-
 0.00003655,-0.00000384,0.00008230,-0.00005267,0.00000187,0.00000079,0.
 00000883,0.00029285,-0.00027185,0.00005041,-0.00001980,0.00001900,0.00
 001282,0.00001023,0.00000558,-0.00000435,-0.00000403,0.00002242,-0.000
 02045,-0.00000165,0.00002675,-0.00000825,-0.00001502,-0.00009756,0.000
 00704,0.00196474,0.00015816,-0.00484789,-0.00009117,-0.00000946,-0.000
 08351,-0.00000763,-0.00002610,0.00007503,0.00003303,0.00015074,-0.0000
 1824,-0.00165383,-0.00095001,0.00248694,-0.00371441,0.00103658,-0.0004
 4560,-0.00015862,-0.00057562,0.00016419,-0.09770450,-0.17304365,-0.046
 36184,0.01307415,0.03275933,0.00966107,0.08809232,-0.00004177,-0.00004
 031,0.00001969,0.00000004,0.00011588,0.00001345,0.00000816,-0.00012056
 ,-0.00003807,0.00001561,-0.00005488,0.00000303,-0.00011349,0.00030253,
 -0.00010984,0.00005329,0.00018597,0.00006903,0.00004861,0.00009569,-0.
 00001264,0.00032405,-0.00033550,-0.00012156,-0.00001058,-0.00016734,0.
 00008956,0.00006959,-0.00004138,0.00004008,0.00002210,-0.00001788,-0.0
 0002630,-0.00031769,-0.00001047,-0.00013677,-0.00003386,-0.00003894,0.
 00000329,-0.00001741,-0.00001238,0.00001251,-0.00001507,-0.00004727,0.
 00001015,-0.00001731,-0.00011386,-0.00001797,0.00004678,0.00012599,0.0
 0004957,-0.00121779,-0.00253183,-0.00023735,-0.00007554,-0.00021291,0.
 00011771,0.00006340,0.00023209,-0.00011594,-0.00001032,-0.00016229,-0.
 00008084,0.00063743,0.00157034,-0.00026461,0.00126254,0.00062659,0.000
 65234,-0.00007819,-0.00016392,0.00013426,-0.12309218,-0.43738396,-0.12
 608667,-0.01810823,-0.02197737,-0.00700574,0.14059783,0.46017798,-0.00
 000340,0.00000962,0.00002827,-0.00001718,-0.00004473,-0.00009894,0.000
 01708,0.00009344,0.00008549,0.00001470,-0.00002173,0.00006095,0.000031
 50,-0.00028107,-0.00013913,0.00004012,0.00001245,-0.00006423,-0.000025
 52,-0.00005320,-0.00006785,0.00017181,0.00019555,0.00025638,0.00002010
 ,0.00016621,0.00001700,-0.00006615,0.00011330,-0.00002513,-0.00001505,
 -0.00001656,0.00002455,-0.00007284,0.00010329,-0.00004593,-0.00002635,
 0.00001284,0.00002334,0.00000647,0.00000486,0.00000289,0.00002022,-0.0
 0002360,0.00003829,0.00001004,0.00009115,0.00005001,0.00000008,0.00003
 192,-0.00001932,-0.00401729,-0.00043875,0.00433993,0.00020786,0.000122
 09,0.00021536,-0.00012477,-0.00020231,-0.00014621,-0.00001615,-0.00004
 682,-0.00001975,0.00280339,0.00155500,-0.00275543,-0.00005376,0.000015
 60,0.00017067,0.00047554,0.00049566,-0.00014837,-0.03301839,-0.1296623
 7,-0.04093004,-0.00554762,-0.00527143,-0.00221790,0.03918554,0.1330396
 2,0.04136510\\-0.00000825,0.00001594,0.00000525,0.00001791,0.00001719,
 -0.00001954,-0.00000590,0.00001514,0.00002253,-0.00001224,-0.00003059,
 -0.00000269,-0.00000597,0.00000859,0.00001103,-0.00002218,-0.00000363,
 -0.00001916,-0.00000120,-0.00001221,-0.00000896,-0.00001269,0.00000548
 ,0.00001741,0.00000665,-0.00000459,-0.00002216,0.00001172,-0.00000277,
 0.00000296,0.00002112,0.00000207,-0.00000686,-0.00001826,0.00001882,-0
 .00001022,-0.00000286,0.00000936,0.00002041,-0.00000565,-0.00000391,0.
 00001185,-0.00000700,-0.00001848,-0.00001733,0.00002777,-0.00002402,0.
 00001718,0.00000760,0.00000269,0.00001913,0.00001011,-0.00001113,-0.00
 000027,0.00000557,0.00001410,-0.00001637,-0.00003135,0.00000318,0.0000
 0009,-0.00000206,0.00001386,-0.00000342,0.00001713,0.00002356,0.000013
 55,0.00004160,-0.00002705,-0.00000758,-0.00001541,-0.00001857,-0.00000
 519,0.00005741,0.00002244,-0.00000780,-0.00004366,-0.00002591,0.000003
 02,-0.00002994,0.00001047,0.00000312\\\@
 The archive entry for this job was punched.


 A SOLDIER'S LIFE IS A LIFE OF HONOR, BUT A DOG WOULD NOT LEAD IT.
 -- PRINCE RUPERT, FOUNDER OF THE HUDSON'S BAY COMPANY
 Job cpu time:      58 days 18 hours  3 minutes 27.5 seconds.
 Elapsed time:       2 days 15 hours 32 minutes 35.4 seconds.
 File lengths (MBytes):  RWF=1120226 Int=      0 D2E=      0 Chk=     75 Scr=      1
 Normal termination of Gaussian 16 at Mon Aug  4 22:53:51 2025.
